*~~~~~~~~~~~~~~~~~~~~~~~~~~~~~~~~~~~~~~~~~~~~~~~~~~~~~~~~~~~~~~~~~~~~~~~
*~ MINIMIZATION OF PACKMOL STRUCTURE
*~~~~~~~~~~~~~~~~~~~~~~~~~~~~~~~~~~~~~~~~~~~~~~~~~~~~~~~~~~~~~~~~~~~~~~~
*  DATE:    10/20/22     16:25:25      CREATED BY USER: marta
*
     55185  EXT
         1         1  IM1H      C1             21.1975191790       21.3396363451       25.3734149941  IM1H      1               0.0000000000
         2         1  IM1H      DC1            21.1858200152       21.3444010773       25.3633348775  IM1H      1               0.0000000000
         3         1  IM1H      H1             20.9585911929       22.0917768733       24.5914181631  IM1H      1               0.0000000000
         4         1  IM1H      H2             22.2926606587       21.1528692419       25.3836222755  IM1H      1               0.0000000000
         5         1  IM1H      H3             20.8529538684       21.6741997214       26.3752448678  IM1H      1               0.0000000000
         6         1  IM1H      N1             20.5708534829       20.0658481546       25.0315877788  IM1H      1               0.0000000000
         7         1  IM1H      DN1            20.5642656699       20.0629349478       25.0235670808  IM1H      1               0.0000000000
         8         1  IM1H      C2             20.8628731781       19.3171288091       23.9243645743  IM1H      1               0.0000000000
         9         1  IM1H      DC2            20.8527860123       19.3430959312       23.9263175003  IM1H      1               0.0000000000
        10         1  IM1H      H4             21.6618106096       19.6152456810       23.2567461868  IM1H      1               0.0000000000
        11         1  IM1H      C3             20.0575201865       18.2049894879       23.9367950729  IM1H      1               0.0000000000
        12         1  IM1H      DC3            20.0493909175       18.2258560157       23.9295112135  IM1H      1               0.0000000000
        13         1  IM1H      H5             19.9989200679       17.3590260053       23.2631476783  IM1H      1               0.0000000000
        14         1  IM1H      C4             19.6091526422       19.4286311650       25.7065462819  IM1H      1               0.0000000000
        15         1  IM1H      DC4            19.6222880364       19.4527423764       25.6947908730  IM1H      1               0.0000000000
        16         1  IM1H      H6             19.1928532860       19.7713708922       26.6538183260  IM1H      1               0.0000000000
        17         1  IM1H      N2             19.2675000247       18.2942987555       25.0569860823  IM1H      1               0.0000000000
        18         1  IM1H      DN2            19.2681284291       18.3068646459       25.0528811278  IM1H      1               0.0000000000
        19         1  IM1H      H7             18.6100639018       17.6091872833       25.3706738500  IM1H      1               0.0000000000
        20         1  IM1H      LPN21          19.0567066850       18.0996843985       25.1446868234  IM1H      1               0.0000000000
        21         2  IM1H      C1             21.3736755898        3.6329326774       -3.4374541268  IM1H      2               0.0000000000
        22         2  IM1H      DC1            21.3696419236        3.6212472600       -3.4288095024  IM1H      2               0.0000000000
        23         2  IM1H      H1             20.7011522047        4.5080924777       -3.5644526323  IM1H      2               0.0000000000
        24         2  IM1H      H2             20.8505424751        2.8136996679       -2.8993927712  IM1H      2               0.0000000000
        25         2  IM1H      H3             21.7156732965        3.2966312522       -4.4395818237  IM1H      2               0.0000000000
        26         2  IM1H      N1             22.5365988235        4.0652290802       -2.6597092337  IM1H      2               0.0000000000
        27         2  IM1H      DN1            22.5329166606        4.0663623791       -2.6535030378  IM1H      2               0.0000000000
        28         2  IM1H      C2             22.4953181862        4.5770667248       -1.3908499753  IM1H      2               0.0000000000
        29         2  IM1H      DC2            22.4823015274        4.5726614367       -1.4029572589  IM1H      2               0.0000000000
        30         2  IM1H      H4             21.5464679299        4.7060768139       -0.8849561248  IM1H      2               0.0000000000
        31         2  IM1H      C3             23.7866903281        4.8363514960       -0.9950484264  IM1H      2               0.0000000000
        32         2  IM1H      DC3            23.7713987730        4.8356132496       -0.9902441973  IM1H      2               0.0000000000
        33         2  IM1H      H5             24.1933477710        5.2284877599       -0.0710636459  IM1H      2               0.0000000000
        34         2  IM1H      C4             23.8200264757        4.0313567904       -3.0373482850  IM1H      2               0.0000000000
        35         2  IM1H      DC4            23.7835251233        4.0139513297       -3.0293990294  IM1H      2               0.0000000000
        36         2  IM1H      H6             24.1785387223        3.7102576988       -4.0153382359  IM1H      2               0.0000000000
        37         2  IM1H      N2             24.6066037673        4.4968028997       -2.0435463123  IM1H      2               0.0000000000
        38         2  IM1H      DN2            24.5887831858        4.4848923696       -2.0376813444  IM1H      2               0.0000000000
        39         2  IM1H      H7             25.5920507252        4.6528600656       -2.1109292044  IM1H      2               0.0000000000
        40         2  IM1H      LPN21          24.9055144665        4.5202086699       -2.0537719577  IM1H      2               0.0000000000
        41         3  IM1H      C1             -1.0277672116       32.5001391992      -34.8004863265  IM1H      3               0.0000000000
        42         3  IM1H      DC1            -1.0068478161       32.5123034254      -34.8089468328  IM1H      3               0.0000000000
        43         3  IM1H      H1             -1.5791537397       32.7078235872      -35.7423786198  IM1H      3               0.0000000000
        44         3  IM1H      H2             -0.9497191614       33.4239825801      -34.1883238404  IM1H      3               0.0000000000
        45         3  IM1H      H3             -1.5590982047       31.7003620449      -34.2415901991  IM1H      3               0.0000000000
        46         3  IM1H      N1              0.3202570954       32.0300865311      -35.1368846870  IM1H      3               0.0000000000
        47         3  IM1H      DN1             0.3444940239       32.0411609858      -35.1442050232  IM1H      3               0.0000000000
        48         3  IM1H      C2              1.2681389509       32.7558103391      -35.8140437232  IM1H      3               0.0000000000
        49         3  IM1H      DC2             1.2766687628       32.7522922574      -35.8211976235  IM1H      3               0.0000000000
        50         3  IM1H      H4              1.0532420783       33.7785018885      -36.0983152992  IM1H      3               0.0000000000
        51         3  IM1H      C3              2.2739666020       31.8954511306      -36.1831023994  IM1H      3               0.0000000000
        52         3  IM1H      DC3             2.2858263459       31.9028493160      -36.1956931178  IM1H      3               0.0000000000
        53         3  IM1H      H5              3.0852085863       32.0365086100      -36.8865782202  IM1H      3               0.0000000000
        54         3  IM1H      C4              0.7375982792       30.7611573277      -35.1074731815  IM1H      3               0.0000000000
        55         3  IM1H      DC4             0.7625884556       30.8135252859      -35.1195633019  IM1H      3               0.0000000000
        56         3  IM1H      H6              0.1374387673       29.9224536204      -34.7546493561  IM1H      3               0.0000000000
        57         3  IM1H      N2              1.9346054921       30.6492705441      -35.7144585694  IM1H      3               0.0000000000
        58         3  IM1H      DN2             1.9586817066       30.6622735866      -35.7260356401  IM1H      3               0.0000000000
        59         3  IM1H      H7              2.3304138414       29.7628847094      -35.9545750050  IM1H      3               0.0000000000
        60         3  IM1H      LPN21           2.0941644594       30.3965265292      -35.7401762456  IM1H      3               0.0000000000
        61         4  IM1H      C1             20.1252915602       -5.5082677490        0.7936537774  IM1H      4               0.0000000000
        62         4  IM1H      DC1            20.1287580190       -5.5167405405        0.7978221671  IM1H      4               0.0000000000
        63         4  IM1H      H1             19.3372929182       -4.9018404972        1.2892595970  IM1H      4               0.0000000000
        64         4  IM1H      H2             19.7099975883       -5.9682811029       -0.1284306182  IM1H      4               0.0000000000
        65         4  IM1H      H3             20.9943062651       -4.8631869709        0.5426453455  IM1H      4               0.0000000000
        66         4  IM1H      N1             20.5570574251       -6.5746256256        1.7045466194  IM1H      4               0.0000000000
        67         4  IM1H      DN1            20.5672130228       -6.5873847790        1.7090510545  IM1H      4               0.0000000000
        68         4  IM1H      C2             19.7537150469       -7.5574922202        2.2127877800  IM1H      4               0.0000000000
        69         4  IM1H      DC2            19.7699448871       -7.5499352600        2.2147980424  IM1H      4               0.0000000000
        70         4  IM1H      H4             18.7093708332       -7.5877098666        1.9276193083  IM1H      4               0.0000000000
        71         4  IM1H      C3             20.5199563072       -8.3759281802        3.0061128716  IM1H      4               0.0000000000
        72         4  IM1H      DC3            20.5236877427       -8.3806883540        3.0095098124  IM1H      4               0.0000000000
        73         4  IM1H      H5             20.2640392317       -9.2629383627        3.5723357842  IM1H      4               0.0000000000
        74         4  IM1H      C4             21.7877959741       -6.7793878897        2.1846448757  IM1H      4               0.0000000000
        75         4  IM1H      DC4            21.7761315387       -6.7808784141        2.1720789010  IM1H      4               0.0000000000
        76         4  IM1H      H6             22.6411582606       -6.1375714492        1.9656826311  IM1H      4               0.0000000000
        77         4  IM1H      N2             21.7966290670       -7.8712259182        2.9798977930  IM1H      4               0.0000000000
        78         4  IM1H      DN2            21.7982119553       -7.8744632441        2.9771506445  IM1H      4               0.0000000000
        79         4  IM1H      H7             22.5909721133       -8.2316899866        3.4688607570  IM1H      4               0.0000000000
        80         4  IM1H      LPN21          22.0363523116       -7.9806641311        3.1232715826  IM1H      4               0.0000000000
        81         5  IM1H      C1            -28.0427648119        5.4089119663      -22.8374293925  IM1H      5               0.0000000000
        82         5  IM1H      DC1           -28.0270999466        5.4233149620      -22.8370572839  IM1H      5               0.0000000000
        83         5  IM1H      H1            -28.2626147348        4.9005870781      -21.8743131896  IM1H      5               0.0000000000
        84         5  IM1H      H2            -28.1667054766        4.6875444183      -23.6732455040  IM1H      5               0.0000000000
        85         5  IM1H      H3            -28.7241739667        6.2758310128      -22.9732746291  IM1H      5               0.0000000000
        86         5  IM1H      N1            -26.6506130908        5.8744929923      -22.8178617152  IM1H      5               0.0000000000
        87         5  IM1H      DN1           -26.6332257526        5.8839714834      -22.8157107675  IM1H      5               0.0000000000
        88         5  IM1H      C2            -25.5471631464        5.0793200078      -22.6522182138  IM1H      5               0.0000000000
        89         5  IM1H      DC2           -25.5505343171        5.1096509055      -22.6509174091  IM1H      5               0.0000000000
        90         5  IM1H      H4            -25.6616028221        4.0079210726      -22.5431453835  IM1H      5               0.0000000000
        91         5  IM1H      C3            -24.4351281653        5.8861056489      -22.6713769986  IM1H      5               0.0000000000
        92         5  IM1H      DC3           -24.4227839302        5.8985454746      -22.6647148893  IM1H      5               0.0000000000
        93         5  IM1H      H5            -23.3903443954        5.6168661774      -22.5774303057  IM1H      5               0.0000000000
        94         5  IM1H      C4            -26.2212806460        7.1366035274      -22.9415418743  IM1H      5               0.0000000000
        95         5  IM1H      DC4           -26.2234223693        7.1181559340      -22.9391418327  IM1H      5               0.0000000000
        96         5  IM1H      H6            -26.8703332310        8.0019006911      -23.0760467454  IM1H      5               0.0000000000
        97         5  IM1H      N2            -24.8749952114        7.1791953363      -22.8582635260  IM1H      5               0.0000000000
        98         5  IM1H      DN2           -24.8667742001        7.1742459784      -22.8547162142  IM1H      5               0.0000000000
        99         5  IM1H      H7            -24.3410102241        8.0201450739      -22.9458053568  IM1H      5               0.0000000000
       100         5  IM1H      LPN21         -24.7069259292        7.4269516937      -22.8774860060  IM1H      5               0.0000000000
       101         6  IM1H      C1            -22.4385061349      -22.9345084407        1.2570480160  IM1H      6               0.0000000000
       102         6  IM1H      DC1           -22.4425646860      -22.9413210547        1.2485602523  IM1H      6               0.0000000000
       103         6  IM1H      H1            -22.0574080594      -23.3400213861        0.2954636418  IM1H      6               0.0000000000
       104         6  IM1H      H2            -21.8441846290      -23.3161181037        2.1146475803  IM1H      6               0.0000000000
       105         6  IM1H      H3            -22.4031204114      -21.8240736400        1.2552024857  IM1H      6               0.0000000000
       106         6  IM1H      N1            -23.8192233375      -23.3851926438        1.3968209967  IM1H      6               0.0000000000
       107         6  IM1H      DN1           -23.8254550262      -23.3905754598        1.3957444106  IM1H      6               0.0000000000
       108         6  IM1H      C2            -24.2322959056      -24.6903847292        1.4519137749  IM1H      6               0.0000000000
       109         6  IM1H      DC2           -24.2263083224      -24.6709106591        1.4529957898  IM1H      6               0.0000000000
       110         6  IM1H      H4            -23.5178474962      -25.5015748862        1.3854081404  IM1H      6               0.0000000000
       111         6  IM1H      C3            -25.5924440656      -24.6940762973        1.6379628757  IM1H      6               0.0000000000
       112         6  IM1H      DC3           -25.5870550956      -24.7001623786        1.6215297343  IM1H      6               0.0000000000
       113         6  IM1H      H5            -26.2954622009      -25.4992664617        1.8120987438  IM1H      6               0.0000000000
       114         6  IM1H      C4            -24.8994444271      -22.6141308077        1.5359579256  IM1H      6               0.0000000000
       115         6  IM1H      DC4           -24.8718964142      -22.6257431171        1.5196523199  IM1H      6               0.0000000000
       116         6  IM1H      H6            -24.8910596088      -21.5243394962        1.5555689470  IM1H      6               0.0000000000
       117         6  IM1H      N2            -25.9948553692      -23.3846113929        1.6870652969  IM1H      6               0.0000000000
       118         6  IM1H      DN2           -25.9887227464      -23.3880645384        1.6643745566  IM1H      6               0.0000000000
       119         6  IM1H      H7            -26.8786432465      -23.0581770557        2.0222661493  IM1H      6               0.0000000000
       120         6  IM1H      LPN21         -26.2749115993      -23.2837788901        1.7244994308  IM1H      6               0.0000000000
       121         7  IM1H      C1            -14.6918940681      -13.0241466798       13.0867157052  IM1H      7               0.0000000000
       122         7  IM1H      DC1           -14.7049882119      -13.0350013365       13.0607212929  IM1H      7               0.0000000000
       123         7  IM1H      H1            -15.1534047257      -13.5087761419       13.9735433082  IM1H      7               0.0000000000
       124         7  IM1H      H2            -14.4182944070      -11.9759195236       13.3330570472  IM1H      7               0.0000000000
       125         7  IM1H      H3            -13.7835833882      -13.5850012918       12.7789254949  IM1H      7               0.0000000000
       126         7  IM1H      N1            -15.6670314870      -13.0089496776       11.9912552996  IM1H      7               0.0000000000
       127         7  IM1H      DN1           -15.6727564261      -13.0224671807       11.9579699831  IM1H      7               0.0000000000
       128         7  IM1H      C2            -16.9097720403      -12.4374527492       12.0309476052  IM1H      7               0.0000000000
       129         7  IM1H      DC2           -16.8864639165      -12.4621582216       12.0049570047  IM1H      7               0.0000000000
       130         7  IM1H      H4            -17.2438994526      -11.9169724913       12.9199628882  IM1H      7               0.0000000000
       131         7  IM1H      C3            -17.5109071440      -12.6333901379       10.8130355677  IM1H      7               0.0000000000
       132         7  IM1H      DC3           -17.5062855949      -12.6525644805       10.7957504735  IM1H      7               0.0000000000
       133         7  IM1H      H5            -18.4768111699      -12.3062316113       10.4485006432  IM1H      7               0.0000000000
       134         7  IM1H      C4            -15.5112109644      -13.5410863961       10.7749039725  IM1H      7               0.0000000000
       135         7  IM1H      DC4           -15.5046445768      -13.5684751375       10.7682946175  IM1H      7               0.0000000000
       136         7  IM1H      H6            -14.5795292546      -14.0109759195       10.4598277477  IM1H      7               0.0000000000
       137         7  IM1H      N2            -16.6236975770      -13.3330098483       10.0363387017  IM1H      7               0.0000000000
       138         7  IM1H      DN2           -16.6156347480      -13.3518478058       10.0234394729  IM1H      7               0.0000000000
       139         7  IM1H      H7            -16.7778369529      -13.5700174841        9.0771367243  IM1H      7               0.0000000000
       140         7  IM1H      LPN21         -16.6656569981      -13.4246888589        9.7537889432  IM1H      7               0.0000000000
       141         8  IM1H      C1            -11.7288894988      -11.6804351520      -30.8367839441  IM1H      8               0.0000000000
       142         8  IM1H      DC1           -11.7436312642      -11.6950504874      -30.8314270779  IM1H      8               0.0000000000
       143         8  IM1H      H1            -11.7112844948      -10.9258823877      -30.0215163862  IM1H      8               0.0000000000
       144         8  IM1H      H2            -11.5862321894      -11.1698240392      -31.8131272155  IM1H      8               0.0000000000
       145         8  IM1H      H3            -10.9229949565      -12.4300480512      -30.6853392721  IM1H      8               0.0000000000
       146         8  IM1H      N1            -13.0396984434      -12.3372680861      -30.8525725607  IM1H      8               0.0000000000
       147         8  IM1H      DN1           -13.0511483062      -12.3527394401      -30.8518885619  IM1H      8               0.0000000000
       148         8  IM1H      C2            -14.2479210587      -11.7106377640      -31.0136683025  IM1H      8               0.0000000000
       149         8  IM1H      DC2           -14.2315892005      -11.7343021769      -31.0130847183  IM1H      8               0.0000000000
       150         8  IM1H      H4            -14.2816404827      -10.6350771989      -31.1358217768  IM1H      8               0.0000000000
       151         8  IM1H      C3            -15.2361878979      -12.6670469307      -30.9741416256  IM1H      8               0.0000000000
       152         8  IM1H      DC3           -15.2297634300      -12.6725778025      -30.9754815554  IM1H      8               0.0000000000
       153         8  IM1H      H5            -16.3139860400      -12.5933514606      -31.0503593580  IM1H      8               0.0000000000
       154         8  IM1H      C4            -13.2825279961      -13.6451752909      -30.7246763178  IM1H      8               0.0000000000
       155         8  IM1H      DC4           -13.2676849396      -13.6359366595      -30.7208494091  IM1H      8               0.0000000000
       156         8  IM1H      H6            -12.5056586603      -14.4004733912      -30.6059378880  IM1H      8               0.0000000000
       157         8  IM1H      N2            -14.6125461660      -13.8756761064      -30.7915155242  IM1H      8               0.0000000000
       158         8  IM1H      DN2           -14.6024641799      -13.8744023436      -30.7887968694  IM1H      8               0.0000000000
       159         8  IM1H      H7            -15.0602120955      -14.7690814026      -30.7538035612  IM1H      8               0.0000000000
       160         8  IM1H      LPN21         -14.7443418837      -14.1443070629      -30.7698984474  IM1H      8               0.0000000000
       161         9  IM1H      C1             -3.8647031553      -28.2959640604       21.1041744222  IM1H      9               0.0000000000
       162         9  IM1H      DC1            -3.8591304338      -28.2959039265       21.1144360185  IM1H      9               0.0000000000
       163         9  IM1H      H1             -4.5377914654      -28.5007312281       21.9640253010  IM1H      9               0.0000000000
       164         9  IM1H      H2             -4.1978412047      -28.8876402342       20.2248227594  IM1H      9               0.0000000000
       165         9  IM1H      H3             -3.8834367553      -27.2137443485       20.8536339109  IM1H      9               0.0000000000
       166         9  IM1H      N1             -2.4905258927      -28.6871707046       21.4531079758  IM1H      9               0.0000000000
       167         9  IM1H      DN1            -2.4851847096      -28.6829600396       21.4583324192  IM1H      9               0.0000000000
       168         9  IM1H      C2             -2.0654230487      -29.9616195623       21.7417181815  IM1H      9               0.0000000000
       169         9  IM1H      DC2            -2.0740912979      -29.9356107171       21.7507321128  IM1H      9               0.0000000000
       170         9  IM1H      H4             -2.7629111030      -30.7901092700       21.7396643307  IM1H      9               0.0000000000
       171         9  IM1H      C3             -0.6995158892      -29.9321595996       21.9010898373  IM1H      9               0.0000000000
       172         9  IM1H      DC3            -0.7041682955      -29.9255923742       21.9120787372  IM1H      9               0.0000000000
       173         9  IM1H      H5              0.0219842009      -30.7256387028       22.0518132021  IM1H      9               0.0000000000
       174         9  IM1H      C4             -1.4067429487      -27.8987982076       21.4401395667  IM1H      9               0.0000000000
       175         9  IM1H      DC4            -1.4322122395      -27.9034189892       21.4448114574  IM1H      9               0.0000000000
       176         9  IM1H      H6             -1.4092843055      -26.8458970086       21.1581952333  IM1H      9               0.0000000000
       177         9  IM1H      N2             -0.3055538094      -28.6268267148       21.7313977762  IM1H      9               0.0000000000
       178         9  IM1H      DN2            -0.3100133946      -28.6189662412       21.7344460380  IM1H      9               0.0000000000
       179         9  IM1H      H7              0.6413343451      -28.3074632739       21.6938502650  IM1H      9               0.0000000000
       180         9  IM1H      LPN21          -0.0265104772      -28.5190282818       21.7540763263  IM1H      9               0.0000000000
       181        10  IM1H      C1             16.8163892289      -22.4042819182       -4.4423170275  IM1H      10              0.0000000000
       182        10  IM1H      DC1            16.8166337343      -22.4146238105       -4.4601902956  IM1H      10              0.0000000000
       183        10  IM1H      H1             16.5306843926      -23.1243918082       -3.6459907794  IM1H      10              0.0000000000
       184        10  IM1H      H2             15.9823785123      -21.6955126999       -4.6330873600  IM1H      10              0.0000000000
       185        10  IM1H      H3             17.7236864352      -21.8467998091       -4.1255419038  IM1H      10              0.0000000000
       186        10  IM1H      N1             17.0985783739      -23.1422498918       -5.6809582351  IM1H      10              0.0000000000
       187        10  IM1H      DN1            17.1030318072      -23.1528308643       -5.6962563729  IM1H      10              0.0000000000
       188        10  IM1H      C2             16.2037264963      -23.9157673189       -6.3745066831  IM1H      10              0.0000000000
       189        10  IM1H      DC2            16.2303612937      -23.9170879220       -6.3787963393  IM1H      10              0.0000000000
       190        10  IM1H      H4             15.1787664226      -23.9852843386       -6.0317046537  IM1H      10              0.0000000000
       191        10  IM1H      C3             16.8616556653      -24.4800845537       -7.4424547603  IM1H      10              0.0000000000
       192        10  IM1H      DC3            16.8580025989      -24.4875929210       -7.4588617730  IM1H      10              0.0000000000
       193        10  IM1H      H5             16.5161383308      -25.1782276229       -8.1948529438  IM1H      10              0.0000000000
       194        10  IM1H      C4             18.2744520763      -23.2327736076       -6.3125712967  IM1H      10              0.0000000000
       195        10  IM1H      DC4            18.2512020620      -23.2286281641       -6.3075315103  IM1H      10              0.0000000000
       196        10  IM1H      H6             19.1907807215      -22.7351920352       -5.9949954905  IM1H      10              0.0000000000
       197        10  IM1H      N2             18.1641545750      -24.0407239777       -7.3881847662  IM1H      10              0.0000000000
       198        10  IM1H      DN2            18.1503512185      -24.0395436465       -7.3952602845  IM1H      10              0.0000000000
       199        10  IM1H      H7             18.9427112993      -24.3224329291       -7.9489783946  IM1H      10              0.0000000000
       200        10  IM1H      LPN21          18.3859843270      -24.1092663585       -7.5781676685  IM1H      10              0.0000000000
       201        11  IM1H      C1             16.3531256764      -22.1710887740      -14.0739875103  IM1H      11              0.0000000000
       202        11  IM1H      DC1            16.3530342057      -22.1796677710      -14.0793834575  IM1H      11              0.0000000000
       203        11  IM1H      H1             16.4860003475      -22.3906325174      -15.1549435072  IM1H      11              0.0000000000
       204        11  IM1H      H2             15.3572642940      -21.7143600592      -13.8896508942  IM1H      11              0.0000000000
       205        11  IM1H      H3             16.4882668868      -23.1019084033      -13.4826900615  IM1H      11              0.0000000000
       206        11  IM1H      N1             17.3901051581      -21.2086037900      -13.7322781299  IM1H      11              0.0000000000
       207        11  IM1H      DN1            17.3920852695      -21.2095824277      -13.7288102747  IM1H      11              0.0000000000
       208        11  IM1H      C2             17.5498996647      -19.9807195679      -14.3158224515  IM1H      11              0.0000000000
       209        11  IM1H      DC2            17.5545447038      -20.0074105690      -14.2982296701  IM1H      11              0.0000000000
       210        11  IM1H      H4             16.8714391914      -19.6453586298      -15.0904923344  IM1H      11              0.0000000000
       211        11  IM1H      C3             18.6200903391      -19.3640791202      -13.7162436865  IM1H      11              0.0000000000
       212        11  IM1H      DC3            18.6128514692      -19.3699933343      -13.7064421273  IM1H      11              0.0000000000
       213        11  IM1H      H5             19.0819617242      -18.4047224244      -13.9142299334  IM1H      11              0.0000000000
       214        11  IM1H      C4             18.3478184470      -21.3506873232      -12.8147755584  IM1H      11              0.0000000000
       215        11  IM1H      DC4            18.3231921355      -21.3589704255      -12.8294813410  IM1H      11              0.0000000000
       216        11  IM1H      H6             18.4930446479      -22.2328160940      -12.1911906144  IM1H      11              0.0000000000
       217        11  IM1H      N2             19.1150854675      -20.2451598870      -12.7885622771  IM1H      11              0.0000000000
       218        11  IM1H      DN2            19.1116492205      -20.2504323052      -12.7882306031  IM1H      11              0.0000000000
       219        11  IM1H      H7             19.8919384923      -20.0913764172      -12.1779478142  IM1H      11              0.0000000000
       220        11  IM1H      LPN21          19.3520488295      -20.2030708764      -12.6094620809  IM1H      11              0.0000000000
       221        12  IM1H      C1              9.4506867776       -5.5809239740       -1.3252204122  IM1H      12              0.0000000000
       222        12  IM1H      DC1             9.4692919355       -5.5913734575       -1.3146158307  IM1H      12              0.0000000000
       223        12  IM1H      H1              8.6538294013       -6.0928426578       -0.7444635062  IM1H      12              0.0000000000
       224        12  IM1H      H2              9.4110380407       -5.8923680151       -2.3909368787  IM1H      12              0.0000000000
       225        12  IM1H      H3              9.3173770322       -4.4795517778       -1.2658167173  IM1H      12              0.0000000000
       226        12  IM1H      N1             10.7554412916       -5.9443854730       -0.7618437167  IM1H      12              0.0000000000
       227        12  IM1H      DN1            10.7738107279       -5.9457950963       -0.7545402365  IM1H      12              0.0000000000
       228        12  IM1H      C2             11.2799686466       -7.2070496749       -0.6909013851  IM1H      12              0.0000000000
       229        12  IM1H      DC2            11.2761811948       -7.1921158088       -0.6834393290  IM1H      12              0.0000000000
       230        12  IM1H      H4             10.7205179274       -8.0520619501       -1.0728151811  IM1H      12              0.0000000000
       231        12  IM1H      C3             12.5454717107       -7.1185103096       -0.1649515659  IM1H      12              0.0000000000
       232        12  IM1H      DC3            12.5484008154       -7.1230505956       -0.1546696501  IM1H      12              0.0000000000
       233        12  IM1H      H5             13.2992161412       -7.8736759811        0.0207448065  IM1H      12              0.0000000000
       234        12  IM1H      C4             11.6740053432       -5.1065405685       -0.2758910525  IM1H      12              0.0000000000
       235        12  IM1H      DC4            11.6589553460       -5.1072483359       -0.2713792311  IM1H      12              0.0000000000
       236        12  IM1H      H6             11.5389020959       -4.0262318173       -0.2231642582  IM1H      12              0.0000000000
       237        12  IM1H      N2             12.7743087119       -5.7944263981        0.0949235297  IM1H      12              0.0000000000
       238        12  IM1H      DN2            12.7661951952       -5.7961075395        0.1049761269  IM1H      12              0.0000000000
       239        12  IM1H      H7             13.6383154924       -5.4025254229        0.4110024896  IM1H      12              0.0000000000
       240        12  IM1H      LPN21          13.0230578151       -5.6753037567        0.2129645393  IM1H      12              0.0000000000
       241        13  IM1H      C1             17.1035067442       -6.9638250166       -7.3897621879  IM1H      13              0.0000000000
       242        13  IM1H      DC1            17.1178902028       -6.9945125791       -7.3950197180  IM1H      13              0.0000000000
       243        13  IM1H      H1             17.8524177180       -7.0443334104       -6.5730788016  IM1H      13              0.0000000000
       244        13  IM1H      H2             16.2719682021       -6.3006227407       -7.0687833806  IM1H      13              0.0000000000
       245        13  IM1H      H3             17.5668627946       -6.5440556518       -8.3081389357  IM1H      13              0.0000000000
       246        13  IM1H      N1             16.5421966822       -8.2909234791       -7.6726256124  IM1H      13              0.0000000000
       247        13  IM1H      DN1            16.5512068331       -8.3192935949       -7.6820442221  IM1H      13              0.0000000000
       248        13  IM1H      C2             15.8691329223       -9.0872953875       -6.7845700464  IM1H      13              0.0000000000
       249        13  IM1H      DC2            15.8981200099       -9.0961027496       -6.7926776451  IM1H      13              0.0000000000
       250        13  IM1H      H4             15.6361411156       -8.7135795642       -5.7951559261  IM1H      13              0.0000000000
       251        13  IM1H      C3             15.5158824764      -10.2492028121       -7.4270733529  IM1H      13              0.0000000000
       252        13  IM1H      DC3            15.5248219941      -10.2557173784       -7.4300895870  IM1H      13              0.0000000000
       253        13  IM1H      H5             14.9698925475      -11.1225296557       -7.0922835355  IM1H      13              0.0000000000
       254        13  IM1H      C4             16.5911664412       -8.9492974440       -8.8322438132  IM1H      13              0.0000000000
       255        13  IM1H      DC4            16.6221846062       -8.9522296393       -8.8313808117  IM1H      13              0.0000000000
       256        13  IM1H      H6             16.9996141541       -8.5279967124       -9.7508167060  IM1H      13              0.0000000000
       257        13  IM1H      N2             15.9768228205      -10.1443535696       -8.7090188200  IM1H      13              0.0000000000
       258        13  IM1H      DN2            15.9882191484      -10.1500971081       -8.7167078250  IM1H      13              0.0000000000
       259        13  IM1H      H7             15.8036989859      -10.8013720520       -9.4427455073  IM1H      13              0.0000000000
       260        13  IM1H      LPN21          15.9480556841      -10.3489471399       -8.9265364580  IM1H      13              0.0000000000
       261        14  IM1H      C1              1.3568501286       10.4255256402      -24.3252155344  IM1H      14              0.0000000000
       262        14  IM1H      DC1             1.3664115778       10.4152670604      -24.3088508592  IM1H      14              0.0000000000
       263        14  IM1H      H1              1.0532493386       11.4939639935      -24.3494446014  IM1H      14              0.0000000000
       264        14  IM1H      H2              0.7968796509        9.8708096609      -25.1081869561  IM1H      14              0.0000000000
       265        14  IM1H      H3              2.4502403303       10.3267135484      -24.4956709169  IM1H      14              0.0000000000
       266        14  IM1H      N1              1.0058204628        9.8538200793      -23.0278078897  IM1H      14              0.0000000000
       267        14  IM1H      DN1             1.0103079466        9.8443991273      -23.0147563585  IM1H      14              0.0000000000
       268        14  IM1H      C2             -0.2573075263        9.7931075978      -22.5077924154  IM1H      14              0.0000000000
       269        14  IM1H      DC2            -0.2284428157        9.7878484420      -22.5155864568  IM1H      14              0.0000000000
       270        14  IM1H      H4             -1.0981539216       10.2059080465      -23.0513566979  IM1H      14              0.0000000000
       271        14  IM1H      C3             -0.1843181646        9.1753724015      -21.2834296452  IM1H      14              0.0000000000
       272        14  IM1H      DC3            -0.1738623675        9.1714068904      -21.2883927537  IM1H      14              0.0000000000
       273        14  IM1H      H5             -0.9603069986        8.9580278134      -20.5599024104  IM1H      14              0.0000000000
       274        14  IM1H      C4              1.8343421791        9.2820590161      -22.1467226335  IM1H      14              0.0000000000
       275        14  IM1H      DC4             1.8386865269        9.2840814910      -22.1647748832  IM1H      14              0.0000000000
       276        14  IM1H      H6              2.9099521142        9.1986913348      -22.3023282159  IM1H      14              0.0000000000
       277        14  IM1H      N2              1.1361356586        8.8535773991      -21.0707839108  IM1H      14              0.0000000000
       278        14  IM1H      DN2             1.1427589263        8.8508837888      -21.0817832705  IM1H      14              0.0000000000
       279        14  IM1H      H7              1.5019344451        8.4177897686      -20.2484212228  IM1H      14              0.0000000000
       280        14  IM1H      LPN21           1.2517194917        8.7142723538      -20.8315466187  IM1H      14              0.0000000000
       281        15  IM1H      C1             30.7906482241       26.8700854532       10.1768744163  IM1H      15              0.0000000000
       282        15  IM1H      DC1            30.7877278654       26.8537458394       10.1799925087  IM1H      15              0.0000000000
       283        15  IM1H      H1             29.7460833614       27.1601135002       10.4199566695  IM1H      15              0.0000000000
       284        15  IM1H      H2             30.8116232537       26.1763445595        9.3093465366  IM1H      15              0.0000000000
       285        15  IM1H      H3             31.3801290523       27.7832059078        9.9465607420  IM1H      15              0.0000000000
       286        15  IM1H      N1             31.3798838003       26.1906384110       11.3401000714  IM1H      15              0.0000000000
       287        15  IM1H      DN1            31.3776838553       26.1790210303       11.3457624048  IM1H      15              0.0000000000
       288        15  IM1H      C2             30.9517191075       25.0067746201       11.8907276509  IM1H      15              0.0000000000
       289        15  IM1H      DC2            30.9535317913       25.0191902119       11.8856110489  IM1H      15              0.0000000000
       290        15  IM1H      H4             30.0957032874       24.4852321399       11.4807040454  IM1H      15              0.0000000000
       291        15  IM1H      C3             31.7368271146       24.7342256436       12.9848128392  IM1H      15              0.0000000000
       292        15  IM1H      DC3            31.7315151965       24.7292496877       12.9831559957  IM1H      15              0.0000000000
       293        15  IM1H      H5             31.7098104064       23.9194848680       13.6978041196  IM1H      15              0.0000000000
       294        15  IM1H      C4             32.3950194188       26.6331086112       12.0884430732  IM1H      15              0.0000000000
       295        15  IM1H      DC4            32.3789856754       26.6053592242       12.0621911294  IM1H      15              0.0000000000
       296        15  IM1H      H6             32.9005383507       27.5872655790       11.9396644111  IM1H      15              0.0000000000
       297        15  IM1H      N2             32.6407600646       25.7618691671       13.0908476805  IM1H      15              0.0000000000
       298        15  IM1H      DN2            32.6409604228       25.7509804339       13.0867615605  IM1H      15              0.0000000000
       299        15  IM1H      H7             33.3199566037       25.8965987351       13.8123322644  IM1H      15              0.0000000000
       300        15  IM1H      LPN21          32.8557163941       25.7911553427       13.2980579512  IM1H      15              0.0000000000
       301        16  IM1H      C1              5.6529607829       20.7676822789       33.9011763306  IM1H      16              0.0000000000
       302        16  IM1H      DC1             5.6511539898       20.7764400345       33.8929714040  IM1H      16              0.0000000000
       303        16  IM1H      H1              5.0426680932       21.3363966607       33.1673999441  IM1H      16              0.0000000000
       304        16  IM1H      H2              6.5586576067       20.3342664111       33.4255872760  IM1H      16              0.0000000000
       305        16  IM1H      H3              5.9575678091       21.4194220124       34.7477995530  IM1H      16              0.0000000000
       306        16  IM1H      N1              4.8458711144       19.6684334665       34.4262001247  IM1H      16              0.0000000000
       307        16  IM1H      DN1             4.8413055188       19.6704100747       34.4220589378  IM1H      16              0.0000000000
       308        16  IM1H      C2              4.2812294072       18.6595787010       33.6919341563  IM1H      16              0.0000000000
       309        16  IM1H      DC2             4.2886979570       18.6798550560       33.7108077164  IM1H      16              0.0000000000
       310        16  IM1H      H4              4.3894149151       18.6204245989       32.6150628306  IM1H      16              0.0000000000
       311        16  IM1H      C3              3.6960382310       17.7699793368       34.5581780700  IM1H      16              0.0000000000
       312        16  IM1H      DC3             3.6878702886       17.7759359844       34.5476640214  IM1H      16              0.0000000000
       313        16  IM1H      H5              3.1990743099       16.8190452460       34.4110719317  IM1H      16              0.0000000000
       314        16  IM1H      C4              4.6007818216       19.4070570347       35.7091912017  IM1H      16              0.0000000000
       315        16  IM1H      DC4             4.6032708213       19.4305680756       35.6849431179  IM1H      16              0.0000000000
       316        16  IM1H      H6              4.9486480178       20.0066659421       36.5503560296  IM1H      16              0.0000000000
       317        16  IM1H      N2              3.9107237573       18.2576567177       35.8073954512  IM1H      16              0.0000000000
       318        16  IM1H      DN2             3.9091611533       18.2802155380       35.7813204835  IM1H      16              0.0000000000
       319        16  IM1H      H7              3.7472142182       17.7590412621       36.6586576071  IM1H      16              0.0000000000
       320        16  IM1H      LPN21           3.8201760180       18.1316224223       36.0641374682  IM1H      16              0.0000000000
       321        17  IM1H      C1             27.5922172069      -26.5921334463       23.4900908650  IM1H      17              0.0000000000
       322        17  IM1H      DC1            27.5762403254      -26.5842036330       23.5055319733  IM1H      17              0.0000000000
       323        17  IM1H      H1             26.9793913373      -26.3736690538       22.5895139595  IM1H      17              0.0000000000
       324        17  IM1H      H2             28.1166576715      -27.5627445076       23.3589521272  IM1H      17              0.0000000000
       325        17  IM1H      H3             28.3406317108      -25.7862063333       23.6471838927  IM1H      17              0.0000000000
       326        17  IM1H      N1             26.7162168675      -26.6867377331       24.6469521598  IM1H      17              0.0000000000
       327        17  IM1H      DN1            26.7042473688      -26.6856382081       24.6610818748  IM1H      17              0.0000000000
       328        17  IM1H      C2             25.6150306962      -27.4947758810       24.7531435949  IM1H      17              0.0000000000
       329        17  IM1H      DC2            25.6284466481      -27.4776821444       24.7601813508  IM1H      17              0.0000000000
       330        17  IM1H      H4             25.3692700835      -28.1885910502       23.9587184994  IM1H      17              0.0000000000
       331        17  IM1H      C3             25.0097530625      -27.2284569769       25.9571111414  IM1H      17              0.0000000000
       332        17  IM1H      DC3            25.0128550365      -27.2282191689       25.9606468392  IM1H      17              0.0000000000
       333        17  IM1H      H5             24.1161226482      -27.6375327294       26.4120514798  IM1H      17              0.0000000000
       334        17  IM1H      C4             26.7938748613      -25.9563318131       25.7614234551  IM1H      17              0.0000000000
       335        17  IM1H      DC4            26.7859524151      -25.9570310536       25.7378293384  IM1H      17              0.0000000000
       336        17  IM1H      H6             27.5590511895      -25.2054608670       25.9583955574  IM1H      17              0.0000000000
       337        17  IM1H      N2             25.7632640648      -26.2620895152       26.5749255314  IM1H      17              0.0000000000
       338        17  IM1H      DN2            25.7594347315      -26.2606620927       26.5757046026  IM1H      17              0.0000000000
       339        17  IM1H      H7             25.5892364611      -25.8271560223       27.4584113829  IM1H      17              0.0000000000
       340        17  IM1H      LPN21          25.7113693275      -26.1382402010       26.8431945821  IM1H      17              0.0000000000
       341        18  IM1H      C1              6.8045431193        5.6001141125      -25.9833391716  IM1H      18              0.0000000000
       342        18  IM1H      DC1             6.7899041628        5.5966841946      -25.9638843912  IM1H      18              0.0000000000
       343        18  IM1H      H1              6.3314502298        6.5925461442      -26.1432853555  IM1H      18              0.0000000000
       344        18  IM1H      H2              7.5855708696        5.4443247230      -26.7579657396  IM1H      18              0.0000000000
       345        18  IM1H      H3              7.2579695932        5.5305528713      -24.9714663206  IM1H      18              0.0000000000
       346        18  IM1H      N1              5.7746965102        4.5636405129      -26.1382999727  IM1H      18              0.0000000000
       347        18  IM1H      DN1             5.7698727924        4.5527500896      -26.1262543356  IM1H      18              0.0000000000
       348        18  IM1H      C2              5.0197516366        4.3390701975      -27.2609499686  IM1H      18              0.0000000000
       349        18  IM1H      DC2             5.0399625317        4.3307350715      -27.2225418935  IM1H      18              0.0000000000
       350        18  IM1H      H4              5.1186535137        4.9673475031      -28.1375200148  IM1H      18              0.0000000000
       351        18  IM1H      C3              4.2065008712        3.2574233142      -27.0210278028  IM1H      18              0.0000000000
       352        18  IM1H      DC3             4.2167270854        3.2627746307      -27.0011125729  IM1H      18              0.0000000000
       353        18  IM1H      H5              3.4877375426        2.7428342625      -27.6467005490  IM1H      18              0.0000000000
       354        18  IM1H      C4              5.4205929806        3.6449372260      -25.2322093325  IM1H      18              0.0000000000
       355        18  IM1H      DC4             5.4307416069        3.6594814926      -25.2310189637  IM1H      18              0.0000000000
       356        18  IM1H      H6              5.8771391113        3.5433673082      -24.2476540104  IM1H      18              0.0000000000
       357        18  IM1H      N2              4.4678516601        2.8348821596      -25.7459616310  IM1H      18              0.0000000000
       358        18  IM1H      DN2             4.4739090050        2.8399345959      -25.7309912966  IM1H      18              0.0000000000
       359        18  IM1H      H7              4.0670302102        2.0255135400      -25.3167011007  IM1H      18              0.0000000000
       360        18  IM1H      LPN21           4.3386712970        2.6045397954      -25.6036421698  IM1H      18              0.0000000000
       361        19  IM1H      C1              3.1132123981       -6.7862054614      -24.8759451986  IM1H      19              0.0000000000
       362        19  IM1H      DC1             3.1092219892       -6.7905549401      -24.8865862810  IM1H      19              0.0000000000
       363        19  IM1H      H1              3.4866976171       -5.7921850504      -25.2026763029  IM1H      19              0.0000000000
       364        19  IM1H      H2              3.9467960373       -7.3812165936      -24.4453397290  IM1H      19              0.0000000000
       365        19  IM1H      H3              2.3171035802       -6.6497837896      -24.1131078125  IM1H      19              0.0000000000
       366        19  IM1H      N1              2.5636507055       -7.5058565445      -26.0376600714  IM1H      19              0.0000000000
       367        19  IM1H      DN1             2.5595031704       -7.5099169572      -26.0475869389  IM1H      19              0.0000000000
       368        19  IM1H      C2              3.2542081868       -7.8651864135      -27.1682612340  IM1H      19              0.0000000000
       369        19  IM1H      DC2             3.2416338324       -7.8599517556      -27.1532426117  IM1H      19              0.0000000000
       370        19  IM1H      H4              4.3059918717       -7.6280299778      -27.2702264498  IM1H      19              0.0000000000
       371        19  IM1H      C3              2.3877232166       -8.5171822516      -28.0128454358  IM1H      19              0.0000000000
       372        19  IM1H      DC3             2.3894920820       -8.5135041160      -28.0117642252  IM1H      19              0.0000000000
       373        19  IM1H      H5              2.5330474918       -8.9508640120      -28.9945225648  IM1H      19              0.0000000000
       374        19  IM1H      C4              1.3045984467       -7.9334631228      -26.1911388504  IM1H      19              0.0000000000
       375        19  IM1H      DC4             1.3252330574       -7.9207519619      -26.1852031520  IM1H      19              0.0000000000
       376        19  IM1H      H6              0.5131315786       -7.8062513812      -25.4525609131  IM1H      19              0.0000000000
       377        19  IM1H      N2              1.1684459961       -8.5533749850      -27.3828903464  IM1H      19              0.0000000000
       378        19  IM1H      DN2             1.1712897422       -8.5467199381      -27.3819619357  IM1H      19              0.0000000000
       379        19  IM1H      H7              0.3357949444       -8.9925613465      -27.7202441162  IM1H      19              0.0000000000
       380        19  IM1H      LPN21           0.9154255463       -8.6758248022      -27.4877077793  IM1H      19              0.0000000000
       381        20  IM1H      C1             22.2639148680        3.5268399210        9.8353538242  IM1H      20              0.0000000000
       382        20  IM1H      DC1            22.2586910574        3.5413919903        9.8217821408  IM1H      20              0.0000000000
       383        20  IM1H      H1             22.6720560665        2.5402931442       10.1427090259  IM1H      20              0.0000000000
       384        20  IM1H      H2             22.9238316046        4.3362555421       10.2144016484  IM1H      20              0.0000000000
       385        20  IM1H      H3             22.1737440591        3.5734148563        8.7289989975  IM1H      20              0.0000000000
       386        20  IM1H      N1             20.9424534404        3.6810862344       10.4536101429  IM1H      20              0.0000000000
       387        20  IM1H      DN1            20.9284735807        3.6862731669       10.4377691234  IM1H      20              0.0000000000
       388        20  IM1H      C2             20.6821842155        3.6036453577       11.7948864987  IM1H      20              0.0000000000
       389        20  IM1H      DC2            20.6680545391        3.6246157768       11.7501223493  IM1H      20              0.0000000000
       390        20  IM1H      H4             21.4649268032        3.3398411438       12.4953223473  IM1H      20              0.0000000000
       391        20  IM1H      C3             19.3343366626        3.8008537545       11.9783287996  IM1H      20              0.0000000000
       392        20  IM1H      DC3            19.3301809540        3.8079333804       11.9633496813  IM1H      20              0.0000000000
       393        20  IM1H      H5             18.7340052174        3.8180013757       12.8795485924  IM1H      20              0.0000000000
       394        20  IM1H      C4             19.7776402486        3.9032969812        9.8314011253  IM1H      20              0.0000000000
       395        20  IM1H      DC4            19.7946673032        3.9093235304        9.8075506139  IM1H      20              0.0000000000
       396        20  IM1H      H6             19.6660872011        3.9624355314        8.7487384126  IM1H      20              0.0000000000
       397        20  IM1H      N2             18.7783689867        3.9816750446       10.7367328481  IM1H      20              0.0000000000
       398        20  IM1H      DN2            18.7874619066        3.9929618441       10.7187539883  IM1H      20              0.0000000000
       399        20  IM1H      H7             17.7945441988        4.0141160739       10.5605614364  IM1H      20              0.0000000000
       400        20  IM1H      LPN21          18.4889707315        4.0299109759       10.6741074155  IM1H      20              0.0000000000
       401        21  IM1H      C1             -8.3558682692       -5.0280634400       28.2606515274  IM1H      21              0.0000000000
       402        21  IM1H      DC1            -8.3663070838       -5.0300291233       28.2676905231  IM1H      21              0.0000000000
       403        21  IM1H      H1             -8.4793877038       -6.1023116987       28.5157096150  IM1H      21              0.0000000000
       404        21  IM1H      H2             -7.3896700209       -4.6488372112       28.6568451844  IM1H      21              0.0000000000
       405        21  IM1H      H3             -8.3834103250       -4.8918786082       27.1583738273  IM1H      21              0.0000000000
       406        21  IM1H      N1             -9.4458988513       -4.2567651677       28.8714243019  IM1H      21              0.0000000000
       407        21  IM1H      DN1            -9.4532962532       -4.2573459561       28.8811094395  IM1H      21              0.0000000000
       408        21  IM1H      C2             -9.7068354900       -4.1696752197       30.2151468014  IM1H      21              0.0000000000
       409        21  IM1H      DC2            -9.7032932122       -4.1786968961       30.2021688350  IM1H      21              0.0000000000
       410        21  IM1H      H4             -9.0750942121       -4.6870168203       30.9265887358  IM1H      21              0.0000000000
       411        21  IM1H      C3            -10.8002138092       -3.3534031607       30.3869981783  IM1H      21              0.0000000000
       412        21  IM1H      DC3           -10.7946366418       -3.3641687912       30.3878804178  IM1H      21              0.0000000000
       413        21  IM1H      H5            -11.3188479712       -3.0207764901       31.2776536134  IM1H      21              0.0000000000
       414        21  IM1H      C4            -10.3618469081       -3.5137681478       28.2386966039  IM1H      21              0.0000000000
       415        21  IM1H      DC4           -10.3372183292       -3.5339728152       28.2542415706  IM1H      21              0.0000000000
       416        21  IM1H      H6            -10.4408423542       -3.3895244899       27.1586858480  IM1H      21              0.0000000000
       417        21  IM1H      N2            -11.1983792375       -2.9492261699       29.1350648277  IM1H      21              0.0000000000
       418        21  IM1H      DN2           -11.1905488073       -2.9565890280       29.1398233968  IM1H      21              0.0000000000
       419        21  IM1H      H7            -11.9596267735       -2.3423749683       28.9065176595  IM1H      21              0.0000000000
       420        21  IM1H      LPN21         -11.4285593301       -2.7686271252       29.0687239653  IM1H      21              0.0000000000
       421        22  IM1H      C1             -4.9347466743      -13.5854226526      -10.5210764967  IM1H      22              0.0000000000
       422        22  IM1H      DC1            -4.9365955629      -13.5945535176      -10.5184619563  IM1H      22              0.0000000000
       423        22  IM1H      H1             -5.5683212782      -12.7537478009      -10.1452824535  IM1H      22              0.0000000000
       424        22  IM1H      H2             -4.6568727049      -13.4104541119      -11.5824402736  IM1H      22              0.0000000000
       425        22  IM1H      H3             -4.0154338583      -13.6775758735       -9.9040734737  IM1H      22              0.0000000000
       426        22  IM1H      N1             -5.7064243036      -14.8163424798      -10.4523417328  IM1H      22              0.0000000000
       427        22  IM1H      DN1            -5.6996591478      -14.8325374350      -10.4462711148  IM1H      22              0.0000000000
       428        22  IM1H      C2             -6.8957603404      -15.0506035366      -11.0818197293  IM1H      22              0.0000000000
       429        22  IM1H      DC2            -6.8514569974      -15.0539785454      -11.0764477746  IM1H      22              0.0000000000
       430        22  IM1H      H4             -7.3997125764      -14.2829267074      -11.6559220109  IM1H      22              0.0000000000
       431        22  IM1H      C3             -7.2954416899      -16.3260994154      -10.7741310526  IM1H      22              0.0000000000
       432        22  IM1H      DC3            -7.2586439553      -16.3393755151      -10.7705586825  IM1H      22              0.0000000000
       433        22  IM1H      H5             -8.2094098092      -16.8362674468      -11.0521236006  IM1H      22              0.0000000000
       434        22  IM1H      C4             -5.3802221468      -15.9206291830       -9.7779155675  IM1H      22              0.0000000000
       435        22  IM1H      DC4            -5.3638393722      -15.9108169908       -9.7763515369  IM1H      22              0.0000000000
       436        22  IM1H      H6             -4.4813522658      -16.0064075844       -9.1673625371  IM1H      22              0.0000000000
       437        22  IM1H      N2             -6.3308607369      -16.8615845132       -9.9567491273  IM1H      22              0.0000000000
       438        22  IM1H      DN2            -6.3152268779      -16.8698669086       -9.9472347120  IM1H      22              0.0000000000
       439        22  IM1H      H7             -6.3567685988      -17.7712506696       -9.5422177453  IM1H      22              0.0000000000
       440        22  IM1H      LPN21          -6.3282149739      -17.1369147863       -9.8376431213  IM1H      22              0.0000000000
       441        23  IM1H      C1            -25.4978940638       35.3097858054        9.8985269824  IM1H      23              0.0000000000
       442        23  IM1H      DC1           -25.4850483191       35.3130017145        9.8897744794  IM1H      23              0.0000000000
       443        23  IM1H      H1            -26.3185480491       36.0107228343        9.6348314756  IM1H      23              0.0000000000
       444        23  IM1H      H2            -25.1843728096       35.4707457536       10.9521480338  IM1H      23              0.0000000000
       445        23  IM1H      H3            -25.8376201023       34.2596894744        9.7712284576  IM1H      23              0.0000000000
       446        23  IM1H      N1            -24.3526295260       35.5698053963        9.0134547067  IM1H      23              0.0000000000
       447        23  IM1H      DN1           -24.3404899664       35.5705534521        9.0036110583  IM1H      23              0.0000000000
       448        23  IM1H      C2            -23.6344853697       36.7370653661        8.9362976914  IM1H      23              0.0000000000
       449        23  IM1H      DC2           -23.6405427512       36.7168241005        8.9336020756  IM1H      23              0.0000000000
       450        23  IM1H      H4            -23.9017272355       37.5832614940        9.5571220613  IM1H      23              0.0000000000
       451        23  IM1H      C3            -22.6373796526       36.5695445941        8.0032900054  IM1H      23              0.0000000000
       452        23  IM1H      DC3           -22.6413413411       36.5656787206        8.0041924643  IM1H      23              0.0000000000
       453        23  IM1H      H5            -21.8542989016       37.2343377974        7.6601813724  IM1H      23              0.0000000000
       454        23  IM1H      C4            -23.8123322345       34.7155416309        8.1388566991  IM1H      23              0.0000000000
       455        23  IM1H      DC4           -23.8272394113       34.7275853915        8.1493070437  IM1H      23              0.0000000000
       456        23  IM1H      H6            -24.1280350264       33.6796651616        8.0147934587  IM1H      23              0.0000000000
       457        23  IM1H      N2            -22.7683125895       35.2968939126        7.5068018810  IM1H      23              0.0000000000
       458        23  IM1H      DN2           -22.7712578522       35.2961086294        7.5099629791  IM1H      23              0.0000000000
       459        23  IM1H      H7            -22.1728101367       34.8561859878        6.8351223787  IM1H      23              0.0000000000
       460        23  IM1H      LPN21         -22.5979747376       35.1678657113        7.2962389699  IM1H      23              0.0000000000
       461        24  IM1H      C1             16.5123585768       34.5848754955      -34.3485237035  IM1H      24              0.0000000000
       462        24  IM1H      DC1            16.5265727061       34.5827873808      -34.3486625798  IM1H      24              0.0000000000
       463        24  IM1H      H1             16.6658043295       34.8610449475      -35.4136555426  IM1H      24              0.0000000000
       464        24  IM1H      H2             16.6731796671       35.4618580989      -33.6856820267  IM1H      24              0.0000000000
       465        24  IM1H      H3             15.4820963207       34.1943426717      -34.2058184187  IM1H      24              0.0000000000
       466        24  IM1H      N1             17.4798241023       33.5410165965      -33.9865932939  IM1H      24              0.0000000000
       467        24  IM1H      DN1            17.4895074349       33.5264572984      -33.9828404585  IM1H      24              0.0000000000
       468        24  IM1H      C2             18.8440035947       33.6633260526      -34.0048300273  IM1H      24              0.0000000000
       469        24  IM1H      DC2            18.8276169855       33.6534591955      -34.0078247352  IM1H      24              0.0000000000
       470        24  IM1H      H4             19.2936768187       34.6064187667      -34.2898898880  IM1H      24              0.0000000000
       471        24  IM1H      C3             19.3905724956       32.4675119687      -33.6019404038  IM1H      24              0.0000000000
       472        24  IM1H      DC3            19.3827564500       32.4706246966      -33.5971077466  IM1H      24              0.0000000000
       473        24  IM1H      H5             20.4218524238       32.1522321452      -33.5021940120  IM1H      24              0.0000000000
       474        24  IM1H      C4             17.1978906694       32.2982516622      -33.5842998531  IM1H      24              0.0000000000
       475        24  IM1H      DC4            17.2012770447       32.3088537749      -33.5832574724  IM1H      24              0.0000000000
       476        24  IM1H      H6             16.1758745590       31.9298731525      -33.4955285531  IM1H      24              0.0000000000
       477        24  IM1H      N2             18.3419385215       31.6192409068      -33.3368001897  IM1H      24              0.0000000000
       478        24  IM1H      DN2            18.3382372126       31.6234232847      -33.3314974198  IM1H      24              0.0000000000
       479        24  IM1H      H7             18.4174068479       30.6692511009      -33.0337756026  IM1H      24              0.0000000000
       480        24  IM1H      LPN21          18.3596228936       31.3353289192      -33.2415046163  IM1H      24              0.0000000000
       481        25  IM1H      C1             20.6536500801       33.9158857597       17.7986473472  IM1H      25              0.0000000000
       482        25  IM1H      DC1            20.6819581788       33.9021389346       17.7931506176  IM1H      25              0.0000000000
       483        25  IM1H      H1             20.5701542626       33.6592762456       16.7209177864  IM1H      25              0.0000000000
       484        25  IM1H      H2             19.6753107952       34.3916030098       18.0241830241  IM1H      25              0.0000000000
       485        25  IM1H      H3             20.7538099827       33.0447784675       18.4808944296  IM1H      25              0.0000000000
       486        25  IM1H      N1             21.8356707967       34.7911364903       17.9512990798  IM1H      25              0.0000000000
       487        25  IM1H      DN1            21.8618844991       34.7875770884       17.9536627869  IM1H      25              0.0000000000
       488        25  IM1H      C2             21.9777159986       36.0793644934       17.5018748588  IM1H      25              0.0000000000
       489        25  IM1H      DC2            21.9907699984       36.0473604327       17.5164298706  IM1H      25              0.0000000000
       490        25  IM1H      H4             21.1546352075       36.6093635562       17.0387031792  IM1H      25              0.0000000000
       491        25  IM1H      C3             23.2319898700       36.5227946274       17.8527079415  IM1H      25              0.0000000000
       492        25  IM1H      DC3            23.2350156972       36.4976992503       17.8694990860  IM1H      25              0.0000000000
       493        25  IM1H      H5             23.6996212092       37.4888889110       17.7082373020  IM1H      25              0.0000000000
       494        25  IM1H      C4             22.9799299930       34.4649776852       18.5723182011  IM1H      25              0.0000000000
       495        25  IM1H      DC4            22.9795996370       34.4522981525       18.5648122144  IM1H      25              0.0000000000
       496        25  IM1H      H6             23.1231423382       33.5339636819       19.1207734406  IM1H      25              0.0000000000
       497        25  IM1H      N2             23.8454008172       35.5039942652       18.5296840098  IM1H      25              0.0000000000
       498        25  IM1H      DN2            23.8546693793       35.4888223732       18.5365114712  IM1H      25              0.0000000000
       499        25  IM1H      H7             24.7385926854       35.5811920454       18.9726837719  IM1H      25              0.0000000000
       500        25  IM1H      LPN21          24.1210798228       35.5077137634       18.6479517196  IM1H      25              0.0000000000
       501        26  IM1H      C1             25.6173106381      -16.7229594848       -5.8549923654  IM1H      26              0.0000000000
       502        26  IM1H      DC1            25.6207721506      -16.7203169001       -5.8757730340  IM1H      26              0.0000000000
       503        26  IM1H      H1             25.1438779738      -16.5017992943       -6.8354364906  IM1H      26              0.0000000000
       504        26  IM1H      H2             26.6390097818      -16.2907046168       -5.7949291433  IM1H      26              0.0000000000
       505        26  IM1H      H3             24.9940322343      -16.3198700357       -5.0283340756  IM1H      26              0.0000000000
       506        26  IM1H      N1             25.7187723366      -18.1755475948       -5.7072173398  IM1H      26              0.0000000000
       507        26  IM1H      DN1            25.7295426025      -18.1745859215       -5.7275099652  IM1H      26              0.0000000000
       508        26  IM1H      C2             26.3786050571      -19.0284207385       -6.5571253114  IM1H      26              0.0000000000
       509        26  IM1H      DC2            26.3803615704      -19.0172808153       -6.5634396238  IM1H      26              0.0000000000
       510        26  IM1H      H4             26.8957382208      -18.6368787201       -7.4243952456  IM1H      26              0.0000000000
       511        26  IM1H      C3             26.2634891868      -20.3038612688       -6.0549450294  IM1H      26              0.0000000000
       512        26  IM1H      DC3            26.2705370221      -20.3031245433       -6.0773888752  IM1H      26              0.0000000000
       513        26  IM1H      H5             26.6527241441      -21.2553035409       -6.3957422577  IM1H      26              0.0000000000
       514        26  IM1H      C4             25.2179256342      -18.9102341553       -4.7136140256  IM1H      26              0.0000000000
       515        26  IM1H      DC4            25.2291801754      -18.8910346421       -4.7871311450  IM1H      26              0.0000000000
       516        26  IM1H      H6             24.7282712352      -18.5439526070       -3.8112967881  IM1H      26              0.0000000000
       517        26  IM1H      N2             25.5249862626      -20.2091624396       -4.9000396407  IM1H      26              0.0000000000
       518        26  IM1H      DN2            25.5265182117      -20.2136984858       -4.9295053110  IM1H      26              0.0000000000
       519        26  IM1H      H7             25.3403830596      -20.8972014769       -4.1982391414  IM1H      26              0.0000000000
       520        26  IM1H      LPN21          25.4442906584      -20.4342950296       -4.7189221749  IM1H      26              0.0000000000
       521        27  IM1H      C1             35.0185366463      -11.3373592895      -10.5773549940  IM1H      27              0.0000000000
       522        27  IM1H      DC1            35.0206795184      -11.3603102879      -10.5821215211  IM1H      27              0.0000000000
       523        27  IM1H      H1             35.3983790905      -10.7675989844      -11.4522343641  IM1H      27              0.0000000000
       524        27  IM1H      H2             35.4301350449      -10.8977366469       -9.6437385355  IM1H      27              0.0000000000
       525        27  IM1H      H3             33.9086640634      -11.2937086735      -10.5528912648  IM1H      27              0.0000000000
       526        27  IM1H      N1             35.4651140096      -12.7365631426      -10.6858662964  IM1H      27              0.0000000000
       527        27  IM1H      DN1            35.4643624537      -12.7574945310      -10.6873128071  IM1H      27              0.0000000000
       528        27  IM1H      C2             36.7665527972      -13.1659781741      -10.7438687077  IM1H      27              0.0000000000
       529        27  IM1H      DC2            36.7417007424      -13.1684214591      -10.7419984993  IM1H      27              0.0000000000
       530        27  IM1H      H4             37.5788258951      -12.4501879389      -10.7165602165  IM1H      27              0.0000000000
       531        27  IM1H      C3             36.7640689270      -14.5362969240      -10.8570663140  IM1H      27              0.0000000000
       532        27  IM1H      DC3            36.7548256723      -14.5371138845      -10.8529680244  IM1H      27              0.0000000000
       533        27  IM1H      H5             37.5774431973      -15.2464392340      -10.9407872610  IM1H      27              0.0000000000
       534        27  IM1H      C4             34.6869463991      -13.8219113124      -10.7645651004  IM1H      27              0.0000000000
       535        27  IM1H      DC4            34.6840488970      -13.8117427850      -10.7583247286  IM1H      27              0.0000000000
       536        27  IM1H      H6             33.5977261176      -13.7807104615      -10.7632734645  IM1H      27              0.0000000000
       537        27  IM1H      N2             35.4496752153      -14.9324584487      -10.8673815822  IM1H      27              0.0000000000
       538        27  IM1H      DN2            35.4427368822      -14.9337517129      -10.8611944258  IM1H      27              0.0000000000
       539        27  IM1H      H7             35.1262144611      -15.8681049058      -11.0085865674  IM1H      27              0.0000000000
       540        27  IM1H      LPN21          35.3467361088      -15.2134538707      -10.8884792875  IM1H      27              0.0000000000
       541        28  IM1H      C1            -35.2458256688      -10.8250676283      -35.2485761835  IM1H      28              0.0000000000
       542        28  IM1H      DC1           -35.2402032266      -10.8157566513      -35.2536523430  IM1H      28              0.0000000000
       543        28  IM1H      H1            -34.9668703066      -11.4684760470      -34.3868740806  IM1H      28              0.0000000000
       544        28  IM1H      H2            -35.1287030310      -11.3926118354      -36.1964669265  IM1H      28              0.0000000000
       545        28  IM1H      H3            -36.2971702952      -10.4839524066      -35.1361667420  IM1H      28              0.0000000000
       546        28  IM1H      N1            -34.3443364660       -9.6614957984      -35.2787779915  IM1H      28              0.0000000000
       547        28  IM1H      DN1           -34.3433670086       -9.6485580798      -35.2797473819  IM1H      28              0.0000000000
       548        28  IM1H      C2            -32.9786537325       -9.7038094952      -35.3975669348  IM1H      28              0.0000000000
       549        28  IM1H      DC2           -33.0082908665       -9.7006438429      -35.3967703091  IM1H      28              0.0000000000
       550        28  IM1H      H4            -32.4547884798      -10.6484742350      -35.4754304464  IM1H      28              0.0000000000
       551        28  IM1H      C3            -32.5050575492       -8.4134073903      -35.3834112957  IM1H      28              0.0000000000
       552        28  IM1H      DC3           -32.5211750099       -8.4155168105      -35.3800078956  IM1H      28              0.0000000000
       553        28  IM1H      H5            -31.4971078422       -8.0234914507      -35.4533537625  IM1H      28              0.0000000000
       554        28  IM1H      C4            -34.6942447637       -8.3719879850      -35.1946486707  IM1H      28              0.0000000000
       555        28  IM1H      DC4           -34.7045946886       -8.3897260716      -35.1952025429  IM1H      28              0.0000000000
       556        28  IM1H      H6            -35.7225923281       -8.0256213941      -35.0915396434  IM1H      28              0.0000000000
       557        28  IM1H      N2            -33.5945425264       -7.5883810989      -35.2552581023  IM1H      28              0.0000000000
       558        28  IM1H      DN2           -33.6068193067       -7.5908903235      -35.2540716646  IM1H      28              0.0000000000
       559        28  IM1H      H7            -33.5600501713       -6.5899206549      -35.2118182603  IM1H      28              0.0000000000
       560        28  IM1H      LPN21         -33.5926909572       -7.2886510975      -35.2426685038  IM1H      28              0.0000000000
       561        29  IM1H      C1             -5.5181963340      -23.8145461472      -29.7472730260  IM1H      29              0.0000000000
       562        29  IM1H      DC1            -5.4987982759      -23.8152187623      -29.7478104833  IM1H      29              0.0000000000
       563        29  IM1H      H1             -5.5664473333      -23.2433757128      -30.6989857854  IM1H      29              0.0000000000
       564        29  IM1H      H2             -5.9791814934      -23.2234444740      -28.9272654073  IM1H      29              0.0000000000
       565        29  IM1H      H3             -6.0591857466      -24.7783594157      -29.8600357915  IM1H      29              0.0000000000
       566        29  IM1H      N1             -4.1086705002      -24.0653951278      -29.4141831065  IM1H      29              0.0000000000
       567        29  IM1H      DN1            -4.0926321201      -24.0722168091      -29.4119116989  IM1H      29              0.0000000000
       568        29  IM1H      C2             -3.1501897811      -23.1138958235      -29.1766961952  IM1H      29              0.0000000000
       569        29  IM1H      DC2            -3.1587938767      -23.1325211026      -29.1856885652  IM1H      29              0.0000000000
       570        29  IM1H      H4             -3.3978027306      -22.0602395077      -29.2139144109  IM1H      29              0.0000000000
       571        29  IM1H      C3             -1.9615320938      -23.7533065016      -28.9174597379  IM1H      29              0.0000000000
       572        29  IM1H      DC3            -1.9628796721      -23.7585962579      -28.9207172819  IM1H      29              0.0000000000
       573        29  IM1H      H5             -0.9804557843      -23.3638614724      -28.6751565280  IM1H      29              0.0000000000
       574        29  IM1H      C4             -3.5173190348      -25.2581774464      -29.2991027649  IM1H      29              0.0000000000
       575        29  IM1H      DC4            -3.5294879127      -25.2503559204      -29.3000383008  IM1H      29              0.0000000000
       576        29  IM1H      H6             -4.0367915413      -26.2085254074      -29.4219321917  IM1H      29              0.0000000000
       577        29  IM1H      N2             -2.2094389640      -25.0999917321      -29.0027387826  IM1H      29              0.0000000000
       578        29  IM1H      DN2            -2.2130541229      -25.1027350898      -28.9996237013  IM1H      29              0.0000000000
       579        29  IM1H      H7             -1.5381201498      -25.8313391703      -28.8824808334  IM1H      29              0.0000000000
       580        29  IM1H      LPN21          -2.0115276767      -25.3219780356      -28.9633280808  IM1H      29              0.0000000000
       581        30  IM1H      C1             14.9191368750       35.3749506958      -10.9611904867  IM1H      30              0.0000000000
       582        30  IM1H      DC1            14.9326749258       35.3910416742      -10.9805085464  IM1H      30              0.0000000000
       583        30  IM1H      H1             14.1549380078       36.1711238198      -10.8330130757  IM1H      30              0.0000000000
       584        30  IM1H      H2             15.5664906724       35.3312573633      -10.0593340937  IM1H      30              0.0000000000
       585        30  IM1H      H3             14.4264112934       34.3902160154      -11.1089744916  IM1H      30              0.0000000000
       586        30  IM1H      N1             15.7495777082       35.6886257915      -12.1280212480  IM1H      30              0.0000000000
       587        30  IM1H      DN1            15.7619361552       35.6935563870      -12.1460276798  IM1H      30              0.0000000000
       588        30  IM1H      C2             16.5297284938       36.8054691226      -12.2824492706  IM1H      30              0.0000000000
       589        30  IM1H      DC2            16.5187563193       36.7862543593      -12.2966304330  IM1H      30              0.0000000000
       590        30  IM1H      H4             16.5696110731       37.5610562240      -11.5076031491  IM1H      30              0.0000000000
       591        30  IM1H      C3             17.1607227349       36.7193549681      -13.4989554683  IM1H      30              0.0000000000
       592        30  IM1H      DC3            17.1566151330       36.7204721352      -13.5158404229  IM1H      30              0.0000000000
       593        30  IM1H      H5             17.8765648443       37.3925182426      -13.9542688552  IM1H      30              0.0000000000
       594        30  IM1H      C4             15.8974761470       34.9399003680      -13.2266201096  IM1H      30              0.0000000000
       595        30  IM1H      DC4            15.9020801944       34.9591465758      -13.2218755371  IM1H      30              0.0000000000
       596        30  IM1H      H6             15.3993579543       33.9806858800      -13.3676372441  IM1H      30              0.0000000000
       597        30  IM1H      N2             16.7510779067       35.5433650373      -14.0829727789  IM1H      30              0.0000000000
       598        30  IM1H      DN2            16.7540374924       35.5467627414      -14.0928755422  IM1H      30              0.0000000000
       599        30  IM1H      H7             17.0450972104       35.1692039082      -14.9624931587  IM1H      30              0.0000000000
       600        30  IM1H      LPN21          16.8336538551       35.4367942292      -14.3509725468  IM1H      30              0.0000000000
       601        31  IM1H      C1              5.8619635756       27.1422879550      -31.4296223190  IM1H      31              0.0000000000
       602        31  IM1H      DC1             5.8678932316       27.1456070526      -31.4138547025  IM1H      31              0.0000000000
       603        31  IM1H      H1              4.9644099124       27.5318216309      -30.9033315847  IM1H      31              0.0000000000
       604        31  IM1H      H2              5.5655863686       26.7261307129      -32.4161793130  IM1H      31              0.0000000000
       605        31  IM1H      H3              6.6138459351       27.9488701932      -31.5653389757  IM1H      31              0.0000000000
       606        31  IM1H      N1              6.4397877969       26.0595949226      -30.6259614354  IM1H      31              0.0000000000
       607        31  IM1H      DN1             6.4528085775       26.0573361774      -30.6163177637  IM1H      31              0.0000000000
       608        31  IM1H      C2              5.7947857939       24.9120094671      -30.2485712898  IM1H      31              0.0000000000
       609        31  IM1H      DC2             5.8172215499       24.9374393564      -30.2509831786  IM1H      31              0.0000000000
       610        31  IM1H      H4              4.7661418493       24.7309887128      -30.5349488758  IM1H      31              0.0000000000
       611        31  IM1H      C3              6.6755667819       24.1473160857      -29.5234887813  IM1H      31              0.0000000000
       612        31  IM1H      DC3             6.6935871637       24.1566685863      -29.5352108441  IM1H      31              0.0000000000
       613        31  IM1H      H5              6.5241365630       23.2024547321      -29.0163449050  IM1H      31              0.0000000000
       614        31  IM1H      C4              7.6851249656       25.9966925965      -30.1406587585  IM1H      31              0.0000000000
       615        31  IM1H      DC4             7.6747214898       26.0106768831      -30.1430921924  IM1H      31              0.0000000000
       616        31  IM1H      H6              8.4426450366       26.7645797056      -30.2975432048  IM1H      31              0.0000000000
       617        31  IM1H      N2              7.8567964054       24.8430513170      -29.4615737781  IM1H      31              0.0000000000
       618        31  IM1H      DN2             7.8659159464       24.8507898577      -29.4592694853  IM1H      31              0.0000000000
       619        31  IM1H      H7              8.7014341137       24.5342506980      -29.0242760292  IM1H      31              0.0000000000
       620        31  IM1H      LPN21           8.1090590799       24.7577221628      -29.3234344337  IM1H      31              0.0000000000
       621        32  IM1H      C1             21.4657132455      -19.1945136351       20.1669406775  IM1H      32              0.0000000000
       622        32  IM1H      DC1            21.4750612509      -19.2049828501       20.1732701447  IM1H      32              0.0000000000
       623        32  IM1H      H1             21.9184519265      -19.4969095097       19.1984855047  IM1H      32              0.0000000000
       624        32  IM1H      H2             22.2126450865      -18.6618414203       20.7935778437  IM1H      32              0.0000000000
       625        32  IM1H      H3             20.5910822083      -18.5366844720       19.9756232933  IM1H      32              0.0000000000
       626        32  IM1H      N1             21.0121701538      -20.3952633718       20.8787555834  IM1H      32              0.0000000000
       627        32  IM1H      DN1            21.0175909519      -20.4009046316       20.8869260444  IM1H      32              0.0000000000
       628        32  IM1H      C2             21.8021674457      -21.4521589584       21.2574580764  IM1H      32              0.0000000000
       629        32  IM1H      DC2            21.7990684251      -21.4337980619       21.2559816075  IM1H      32              0.0000000000
       630        32  IM1H      H4             22.8640262075      -21.4488245330       21.0445406004  IM1H      32              0.0000000000
       631        32  IM1H      C3             21.0074562495      -22.3813976596       21.8858563609  IM1H      32              0.0000000000
       632        32  IM1H      DC3            21.0117879934      -22.3714535039       21.8867531126  IM1H      32              0.0000000000
       633        32  IM1H      H5             21.2425031143      -23.3376937612       22.3365666198  IM1H      32              0.0000000000
       634        32  IM1H      C4             19.7631091897      -20.6709703690       21.2715184631  IM1H      32              0.0000000000
       635        32  IM1H      DC4            19.7921043310      -20.6593018087       21.2688094112  IM1H      32              0.0000000000
       636        32  IM1H      H6             18.9109788581      -20.0102671711       21.1120030025  IM1H      32              0.0000000000
       637        32  IM1H      N2             19.7299009857      -21.8778989278       21.8831617575  IM1H      32              0.0000000000
       638        32  IM1H      DN2            19.7312066019      -21.8759755916       21.8873583908  IM1H      32              0.0000000000
       639        32  IM1H      H7             18.9256314381      -22.3193616573       22.2809822613  IM1H      32              0.0000000000
       640        32  IM1H      LPN21          19.4852352620      -22.0091438513       21.9967991356  IM1H      32              0.0000000000
       641        33  IM1H      C1             -6.0657384044      -24.4524129822       29.1831293410  IM1H      33              0.0000000000
       642        33  IM1H      DC1            -6.0496220453      -24.4566219308       29.1989362751  IM1H      33              0.0000000000
       643        33  IM1H      H1             -6.3481801762      -23.4529213691       28.7887131121  IM1H      33              0.0000000000
       644        33  IM1H      H2             -5.9588877249      -24.4136984101       30.2883013250  IM1H      33              0.0000000000
       645        33  IM1H      H3             -6.8498443109      -25.1848781267       28.8950429980  IM1H      33              0.0000000000
       646        33  IM1H      N1             -4.7762507814      -24.8521892478       28.5928456962  IM1H      33              0.0000000000
       647        33  IM1H      DN1            -4.7633302514      -24.8590418899       28.5983204009  IM1H      33              0.0000000000
       648        33  IM1H      C2             -3.5916119389      -24.1609922349       28.6864628449  IM1H      33              0.0000000000
       649        33  IM1H      DC2            -3.6075777237      -24.1677098985       28.6957286257  IM1H      33              0.0000000000
       650        33  IM1H      H4             -3.5397112841      -23.2233616974       29.2259480618  IM1H      33              0.0000000000
       651        33  IM1H      C3             -2.6394486081      -24.8339338621       27.9564271133  IM1H      33              0.0000000000
       652        33  IM1H      DC3            -2.6532312485      -24.8315632871       27.9583525053  IM1H      33              0.0000000000
       653        33  IM1H      H5             -1.5905669191      -24.6295974376       27.7804077161  IM1H      33              0.0000000000
       654        33  IM1H      C4             -4.5530905143      -25.9160214487       27.8123992499  IM1H      33              0.0000000000
       655        33  IM1H      DC4            -4.5561245964      -25.9036116112       27.8323930141  IM1H      33              0.0000000000
       656        33  IM1H      H6             -5.3243370878      -26.6322797412       27.5291100313  IM1H      33              0.0000000000
       657        33  IM1H      N2             -3.2602597638      -25.9346494058       27.4165785130  IM1H      33              0.0000000000
       658        33  IM1H      DN2            -3.2636641597      -25.9360233466       27.4188061074  IM1H      33              0.0000000000
       659        33  IM1H      H7             -2.8329464133      -26.6145649739       26.8206606318  IM1H      33              0.0000000000
       660        33  IM1H      LPN21          -3.1347917055      -26.1437356556       27.2418195177  IM1H      33              0.0000000000
       661        34  IM1H      C1             35.9636936092      -12.9590853301       18.6999246501  IM1H      34              0.0000000000
       662        34  IM1H      DC1            35.9630997297      -12.9564465523       18.7036391661  IM1H      34              0.0000000000
       663        34  IM1H      H1             36.9109068775      -13.5017577851       18.9063577658  IM1H      34              0.0000000000
       664        34  IM1H      H2             35.6036531958      -13.1920007501       17.6750137721  IM1H      34              0.0000000000
       665        34  IM1H      H3             35.1881086559      -13.2522707534       19.4394050660  IM1H      34              0.0000000000
       666        34  IM1H      N1             36.2127307459      -11.5086311137       18.7982004147  IM1H      34              0.0000000000
       667        34  IM1H      DN1            36.2167826153      -11.5062098995       18.7969196654  IM1H      34              0.0000000000
       668        34  IM1H      C2             37.0433777253      -10.7791718496       17.9880255255  IM1H      34              0.0000000000
       669        34  IM1H      DC2            37.0304658272      -10.7905923816       18.0023946923  IM1H      34              0.0000000000
       670        34  IM1H      H4             37.6011864049      -11.2637398229       17.1962349242  IM1H      34              0.0000000000
       671        34  IM1H      C3             36.9458958578       -9.4560791598       18.3511955286  IM1H      34              0.0000000000
       672        34  IM1H      DC3            36.9485870006       -9.4642419986       18.3526499874  IM1H      34              0.0000000000
       673        34  IM1H      H5             37.3936641524       -8.5603006961       17.9389171051  IM1H      34              0.0000000000
       674        34  IM1H      C4             35.6239479997      -10.6428388064       19.6343116034  IM1H      34              0.0000000000
       675        34  IM1H      DC4            35.6517005132      -10.6679614945       19.6262041361  IM1H      34              0.0000000000
       676        34  IM1H      H6             34.8440311360      -10.9004674576       20.3508708569  IM1H      34              0.0000000000
       677        34  IM1H      N2             36.0646807509       -9.3904719917       19.3999332746  IM1H      34              0.0000000000
       678        34  IM1H      DN2            36.0742813755       -9.3987759040       19.4034403361  IM1H      34              0.0000000000
       679        34  IM1H      H7             35.6824730752       -8.5557665893       19.7963978807  IM1H      34              0.0000000000
       680        34  IM1H      LPN21          35.9826061514       -9.1450182307       19.5516442213  IM1H      34              0.0000000000
       681        35  IM1H      C1             22.9899276877       15.1736148666      -29.0901863945  IM1H      35              0.0000000000
       682        35  IM1H      DC1            22.9998963309       15.1839695880      -29.0867887319  IM1H      35              0.0000000000
       683        35  IM1H      H1             22.6767492796       15.4892185595      -30.1083389341  IM1H      35              0.0000000000
       684        35  IM1H      H2             22.1418972857       15.2751991588      -28.3796611865  IM1H      35              0.0000000000
       685        35  IM1H      H3             23.3361834292       14.1183073255      -29.1176446577  IM1H      35              0.0000000000
       686        35  IM1H      N1             24.0962287526       16.0327293105      -28.6502227491  IM1H      35              0.0000000000
       687        35  IM1H      DN1            24.1047909982       16.0436763464      -28.6429199352  IM1H      35              0.0000000000
       688        35  IM1H      C2             24.0482390950       17.3931621939      -28.5110195674  IM1H      35              0.0000000000
       689        35  IM1H      DC2            24.0567645683       17.3722528347      -28.5099169250  IM1H      35              0.0000000000
       690        35  IM1H      H4             23.1401680435       17.9451818296      -28.7197545362  IM1H      35              0.0000000000
       691        35  IM1H      C3             25.3048522839       17.8309242182      -28.1687392595  IM1H      35              0.0000000000
       692        35  IM1H      DC3            25.3054119054       17.8373137743      -28.1615838982  IM1H      35              0.0000000000
       693        35  IM1H      H5             25.6789274818       18.8303687112      -27.9841655568  IM1H      35              0.0000000000
       694        35  IM1H      C4             25.3480550725       15.6492250248      -28.3716251988  IM1H      35              0.0000000000
       695        35  IM1H      DC4            25.3264557859       15.6556912876      -28.3644688082  IM1H      35              0.0000000000
       696        35  IM1H      H6             25.7055512753       14.6221566345      -28.4452932826  IM1H      35              0.0000000000
       697        35  IM1H      N2             26.1049387696       16.7223366741      -28.0661581912  IM1H      35              0.0000000000
       698        35  IM1H      DN2            26.1005356182       16.7257721167      -28.0610141476  IM1H      35              0.0000000000
       699        35  IM1H      H7             27.0784237839       16.7037874430      -27.8381607067  IM1H      35              0.0000000000
       700        35  IM1H      LPN21          26.3950677647       16.7156739134      -27.9901267909  IM1H      35              0.0000000000
       701        36  IM1H      C1              8.1316173975       19.9969207599      -26.1633546304  IM1H      36              0.0000000000
       702        36  IM1H      DC1             8.1490780270       19.9994988998      -26.1717189672  IM1H      36              0.0000000000
       703        36  IM1H      H1              7.9163130343       19.7123542836      -27.2154891048  IM1H      36              0.0000000000
       704        36  IM1H      H2              7.4890071825       20.8455440923      -25.8452170010  IM1H      36              0.0000000000
       705        36  IM1H      H3              7.9561178326       19.1369504322      -25.4821997730  IM1H      36              0.0000000000
       706        36  IM1H      N1              9.5199286216       20.4037184625      -26.0489775755  IM1H      36              0.0000000000
       707        36  IM1H      DN1             9.5376223169       20.4087989370      -26.0522080691  IM1H      36              0.0000000000
       708        36  IM1H      C2             10.1174550259       21.4003000964      -26.7642873406  IM1H      36              0.0000000000
       709        36  IM1H      DC2            10.1066265166       21.3945482283      -26.7535450738  IM1H      36              0.0000000000
       710        36  IM1H      H4              9.5551304462       21.9469739976      -27.5111659872  IM1H      36              0.0000000000
       711        36  IM1H      C3             11.4242637395       21.4883150065      -26.3612731738  IM1H      36              0.0000000000
       712        36  IM1H      DC3            11.4193068029       21.4931941854      -26.3599684096  IM1H      36              0.0000000000
       713        36  IM1H      H5             12.2283685112       22.1380623648      -26.6839694497  IM1H      36              0.0000000000
       714        36  IM1H      C4             10.4307534158       19.9014144694      -25.2151650133  IM1H      36              0.0000000000
       715        36  IM1H      DC4            10.4163602187       19.9024775591      -25.2285152237  IM1H      36              0.0000000000
       716        36  IM1H      H6             10.2277960190       19.0924509940      -24.5133912672  IM1H      36              0.0000000000
       717        36  IM1H      N2             11.6047711862       20.5412726617      -25.3880165297  IM1H      36              0.0000000000
       718        36  IM1H      DN2            11.5986958999       20.5366143023      -25.3980230891  IM1H      36              0.0000000000
       719        36  IM1H      H7             12.4223100864       20.4374601644      -24.8215775551  IM1H      36              0.0000000000
       720        36  IM1H      LPN21          11.8582379983       20.4837473112      -25.2381986096  IM1H      36              0.0000000000
       721        37  IM1H      C1            -16.0884862034       26.8353418178       17.7032004145  IM1H      37              0.0000000000
       722        37  IM1H      DC1           -16.0969024281       26.8306400417       17.7077262702  IM1H      37              0.0000000000
       723        37  IM1H      H1            -16.4254039721       26.0608477202       18.4249803740  IM1H      37              0.0000000000
       724        37  IM1H      H2            -16.9624054905       27.3062295525       17.2043509150  IM1H      37              0.0000000000
       725        37  IM1H      H3            -15.4863033013       27.6147681310       18.2171959161  IM1H      37              0.0000000000
       726        37  IM1H      N1            -15.2611361652       26.1940257631       16.6697796029  IM1H      37              0.0000000000
       727        37  IM1H      DN1           -15.2632909500       26.1874614083       16.6698262362  IM1H      37              0.0000000000
       728        37  IM1H      C2            -15.6794267562       25.2258525346       15.7928705204  IM1H      37              0.0000000000
       729        37  IM1H      DC2           -15.6754994786       25.2446786839       15.8071196175  IM1H      37              0.0000000000
       730        37  IM1H      H4            -16.6907904122       24.8402588370       15.8296136250  IM1H      37              0.0000000000
       731        37  IM1H      C3            -14.6175116154       24.8926127119       14.9851950895  IM1H      37              0.0000000000
       732        37  IM1H      DC3           -14.6215414909       24.8994398426       14.9894014830  IM1H      37              0.0000000000
       733        37  IM1H      H5            -14.5403596199       24.1714795581       14.1808919462  IM1H      37              0.0000000000
       734        37  IM1H      C4            -13.9728281817       26.4443033522       16.4021280887  IM1H      37              0.0000000000
       735        37  IM1H      DC4           -14.0052377499       26.4399996341       16.4079346326  IM1H      37              0.0000000000
       736        37  IM1H      H6            -13.3586402101       27.1777728987       16.9245221544  IM1H      37              0.0000000000
       737        37  IM1H      N2            -13.5518537876       25.6677911998       15.3808632142  IM1H      37              0.0000000000
       738        37  IM1H      DN2           -13.5611352459       25.6724548034       15.3772509352  IM1H      37              0.0000000000
       739        37  IM1H      H7            -12.6105545715       25.6257926993       15.0459126033  IM1H      37              0.0000000000
       740        37  IM1H      LPN21         -13.2753253469       25.6675801166       15.2645361884  IM1H      37              0.0000000000
       741        38  IM1H      C1             -0.6571580657       28.0899672329       29.2337303184  IM1H      38              0.0000000000
       742        38  IM1H      DC1            -0.6681238622       28.1008922255       29.2593842434  IM1H      38              0.0000000000
       743        38  IM1H      H1             -0.1946962886       28.7887576289       28.5042496213  IM1H      38              0.0000000000
       744        38  IM1H      H2             -1.4829738534       27.5341197259       28.7403918603  IM1H      38              0.0000000000
       745        38  IM1H      H3              0.1034623719       27.3676579352       29.5998543805  IM1H      38              0.0000000000
       746        38  IM1H      N1             -1.1986957122       28.8619727048       30.3612742650  IM1H      38              0.0000000000
       747        38  IM1H      DN1            -1.1984771426       28.8665453322       30.3880368751  IM1H      38              0.0000000000
       748        38  IM1H      C2             -2.1941901186       29.8029960797       30.3020059576  IM1H      38              0.0000000000
       749        38  IM1H      DC2            -2.1666906370       29.7849085389       30.3215365739  IM1H      38              0.0000000000
       750        38  IM1H      H4             -2.6541482873       30.0618898042       29.3563307901  IM1H      38              0.0000000000
       751        38  IM1H      C3             -2.4384269446       30.2533922844       31.5771683303  IM1H      38              0.0000000000
       752        38  IM1H      DC3            -2.4317689622       30.2465065278       31.5912417022  IM1H      38              0.0000000000
       753        38  IM1H      H5             -3.1386713476       31.0009106758       31.9289680327  IM1H      38              0.0000000000
       754        38  IM1H      C4             -0.8459875534       28.7383887702       31.6442454558  IM1H      38              0.0000000000
       755        38  IM1H      DC4            -0.8339402004       28.7351797873       31.6371433509  IM1H      38              0.0000000000
       756        38  IM1H      H6             -0.0871851910       28.0412149618       31.9995870600  IM1H      38              0.0000000000
       757        38  IM1H      N2             -1.5907794064       29.5614931664       32.4067938102  IM1H      38              0.0000000000
       758        38  IM1H      DN2            -1.5894571903       29.5547072812       32.3993076852  IM1H      38              0.0000000000
       759        38  IM1H      H7             -1.4886410007       29.6535458666       33.3972957267  IM1H      38              0.0000000000
       760        38  IM1H      LPN21          -1.5714666974       29.5860444822       32.7051631320  IM1H      38              0.0000000000
       761        39  IM1H      C1            -34.3867554912        6.7769137079      -20.0132345602  IM1H      39              0.0000000000
       762        39  IM1H      DC1           -34.3982140447        6.7876233076      -20.0136872859  IM1H      39              0.0000000000
       763        39  IM1H      H1            -33.3302786547        6.5552202970      -19.7504994761  IM1H      39              0.0000000000
       764        39  IM1H      H2            -34.5306702736        6.6358804490      -21.1058091146  IM1H      39              0.0000000000
       765        39  IM1H      H3            -35.0657334753        6.1045708646      -19.4464321285  IM1H      39              0.0000000000
       766        39  IM1H      N1            -34.6742203677        8.1784403679      -19.6867250246  IM1H      39              0.0000000000
       767        39  IM1H      DN1           -34.6840175135        8.1872773590      -19.6804104786  IM1H      39              0.0000000000
       768        39  IM1H      C2            -34.0255320967        9.2666363449      -20.2072565507  IM1H      39              0.0000000000
       769        39  IM1H      DC2           -34.0446700516        9.2451005502      -20.1951827392  IM1H      39              0.0000000000
       770        39  IM1H      H4            -33.2192340261        9.1304380126      -20.9173427678  IM1H      39              0.0000000000
       771        39  IM1H      C3            -34.5694578977       10.3989250310      -19.6493838923  IM1H      39              0.0000000000
       772        39  IM1H      DC3           -34.5800847565       10.3802177569      -19.6507649727  IM1H      39              0.0000000000
       773        39  IM1H      H5            -34.3272007589       11.4483179087      -19.7632920435  IM1H      39              0.0000000000
       774        39  IM1H      C4            -35.6000735832        8.6355157781      -18.8366687147  IM1H      39              0.0000000000
       775        39  IM1H      DC4           -35.5994285858        8.6152011167      -18.8444426088  IM1H      39              0.0000000000
       776        39  IM1H      H6            -36.2684507100        7.9908697619      -18.2658766947  IM1H      39              0.0000000000
       777        39  IM1H      N2            -35.5583084458        9.9858293657      -18.7933676358  IM1H      39              0.0000000000
       778        39  IM1H      DN2           -35.5696407199        9.9703400957      -18.7954081495  IM1H      39              0.0000000000
       779        39  IM1H      H7            -36.0702506651       10.5991029029      -18.1918605845  IM1H      39              0.0000000000
       780        39  IM1H      LPN21         -35.7350803493       10.1606932107      -18.6255155286  IM1H      39              0.0000000000
       781        40  IM1H      C1             15.7623341088      -23.6983233331      -17.1432027351  IM1H      40              0.0000000000
       782        40  IM1H      DC1            15.7710859931      -23.7109523731      -17.1135509731  IM1H      40              0.0000000000
       783        40  IM1H      H1             15.1648806823      -23.7422413579      -18.0788531037  IM1H      40              0.0000000000
       784        40  IM1H      H2             16.6786012574      -23.0905251566      -17.3024412038  IM1H      40              0.0000000000
       785        40  IM1H      H3             15.0825838982      -23.2467940660      -16.3892916182  IM1H      40              0.0000000000
       786        40  IM1H      N1             16.1289889449      -25.0512949423      -16.7349748834  IM1H      40              0.0000000000
       787        40  IM1H      DN1            16.1313187547      -25.0670276576      -16.7218440819  IM1H      40              0.0000000000
       788        40  IM1H      C2             17.0515393810      -25.8823344241      -17.3158138949  IM1H      40              0.0000000000
       789        40  IM1H      DC2            17.0365960305      -25.8759996634      -17.2949154910  IM1H      40              0.0000000000
       790        40  IM1H      H4             17.5884586663      -25.5695474520      -18.2028150173  IM1H      40              0.0000000000
       791        40  IM1H      C3             17.0793892831      -27.0502134375      -16.5904250045  IM1H      40              0.0000000000
       792        40  IM1H      DC3            17.0733558814      -27.0506704227      -16.5881153973  IM1H      40              0.0000000000
       793        40  IM1H      H5             17.6753595168      -27.9471424295      -16.7054331087  IM1H      40              0.0000000000
       794        40  IM1H      C4             15.6008735626      -25.6989247178      -15.6945752922  IM1H      40              0.0000000000
       795        40  IM1H      DC4            15.5994600396      -25.6781665837      -15.6971610305  IM1H      40              0.0000000000
       796        40  IM1H      H6             14.8160033671      -25.2783573779      -15.0659244442  IM1H      40              0.0000000000
       797        40  IM1H      N2             16.1592097753      -26.9213554314      -15.5775508680  IM1H      40              0.0000000000
       798        40  IM1H      DN2            16.1547670147      -26.9101949114      -15.5785690924  IM1H      40              0.0000000000
       799        40  IM1H      H7             15.9204378568      -27.6265909330      -14.9099949841  IM1H      40              0.0000000000
       800        40  IM1H      LPN21          16.0918983199      -27.1246470689      -15.3674516579  IM1H      40              0.0000000000
       801        41  IM1H      C1             20.3763306824       10.3708357753      -10.8287223681  IM1H      41              0.0000000000
       802        41  IM1H      DC1            20.3685543010       10.3708920174      -10.8206294619  IM1H      41              0.0000000000
       803        41  IM1H      H1             20.3782528746       10.0738331385      -11.8992861166  IM1H      41              0.0000000000
       804        41  IM1H      H2             19.9398363788        9.5543993029      -10.2145357437  IM1H      41              0.0000000000
       805        41  IM1H      H3             21.4134112627       10.6091620361      -10.5093707356  IM1H      41              0.0000000000
       806        41  IM1H      N1             19.5489015349       11.5717567258      -10.6757209163  IM1H      41              0.0000000000
       807        41  IM1H      DN1            19.5359134729       11.5774575073      -10.6713820879  IM1H      41              0.0000000000
       808        41  IM1H      C2             18.2426537161       11.7039631546      -11.0648439197  IM1H      41              0.0000000000
       809        41  IM1H      DC2            18.2526521145       11.7086624039      -11.0577031344  IM1H      41              0.0000000000
       810        41  IM1H      H4             17.7217143231       10.8598734311      -11.4996124655  IM1H      41              0.0000000000
       811        41  IM1H      C3             17.8488157114       12.9955853325      -10.8083602142  IM1H      41              0.0000000000
       812        41  IM1H      DC3            17.8376215115       13.0004552930      -10.8104467644  IM1H      41              0.0000000000
       813        41  IM1H      H5             16.8982740608       13.4899663378      -10.9663063824  IM1H      41              0.0000000000
       814        41  IM1H      C4             19.9447297560       12.7535598415      -10.1912320772  IM1H      41              0.0000000000
       815        41  IM1H      DC4            19.9275687537       12.7335268908      -10.1890926272  IM1H      41              0.0000000000
       816        41  IM1H      H6             20.9656787410       12.9689715709       -9.8760163465  IM1H      41              0.0000000000
       817        41  IM1H      N2             18.9302943991       13.6421735781      -10.2593906755  IM1H      41              0.0000000000
       818        41  IM1H      DN2            18.9195770415       13.6446337052      -10.2593885796  IM1H      41              0.0000000000
       819        41  IM1H      H7             19.0077000067       14.6048946349      -10.0002063034  IM1H      41              0.0000000000
       820        41  IM1H      LPN21          18.9428358231       13.9282062374      -10.1697913979  IM1H      41              0.0000000000
       821        42  IM1H      C1             -6.1358406620      -23.6798538708       32.9636670331  IM1H      42              0.0000000000
       822        42  IM1H      DC1            -6.1298402720      -23.6864041559       32.9564111102  IM1H      42              0.0000000000
       823        42  IM1H      H1             -5.9464446280      -24.7591889454       32.7806753912  IM1H      42              0.0000000000
       824        42  IM1H      H2             -6.6147766836      -23.1996420512       32.0837023205  IM1H      42              0.0000000000
       825        42  IM1H      H3             -6.7981672091      -23.5565721147       33.8470956691  IM1H      42              0.0000000000
       826        42  IM1H      N1             -4.8525015611      -23.0103984452       33.2224566256  IM1H      42              0.0000000000
       827        42  IM1H      DN1            -4.8438981983      -23.0138725325       33.2233479630  IM1H      42              0.0000000000
       828        42  IM1H      C2             -3.7859264835      -22.9542766053       32.3609490314  IM1H      42              0.0000000000
       829        42  IM1H      DC2            -3.7984903284      -22.9648140498       32.3685048141  IM1H      42              0.0000000000
       830        42  IM1H      H4             -3.8381561185      -23.4365639479       31.3926722195  IM1H      42              0.0000000000
       831        42  IM1H      C3             -2.8019864956      -22.1875061974       32.9414780029  IM1H      42              0.0000000000
       832        42  IM1H      DC3            -2.8122969519      -22.1894022019       32.9352783235  IM1H      42              0.0000000000
       833        42  IM1H      H5             -1.8188199140      -21.8943451851       32.5945931600  IM1H      42              0.0000000000
       834        42  IM1H      C4             -4.5228739532      -22.2959378668       34.3050997356  IM1H      42              0.0000000000
       835        42  IM1H      DC4            -4.5381977286      -22.3196494833       34.2892566014  IM1H      42              0.0000000000
       836        42  IM1H      H6             -5.1627161768      -22.1413644313       35.1738971700  IM1H      42              0.0000000000
       837        42  IM1H      N2             -3.2828308838      -21.7804936986       34.1634869192  IM1H      42              0.0000000000
       838        42  IM1H      DN2            -3.2902452899      -21.7934910307       34.1531993811  IM1H      42              0.0000000000
       839        42  IM1H      H7             -2.8322920377      -21.1683173670       34.8132983435  IM1H      42              0.0000000000
       840        42  IM1H      LPN21          -3.1414739649      -21.6086921665       34.3647391367  IM1H      42              0.0000000000
       841        43  IM1H      C1             27.5751211276       14.1185257178      -18.7089666329  IM1H      43              0.0000000000
       842        43  IM1H      DC1            27.5951316734       14.1210475284      -18.7024696192  IM1H      43              0.0000000000
       843        43  IM1H      H1             27.0457975904       14.5163864277      -17.8168654900  IM1H      43              0.0000000000
       844        43  IM1H      H2             27.3602907553       13.0338522313      -18.8169126333  IM1H      43              0.0000000000
       845        43  IM1H      H3             27.2397399766       14.6595964776      -19.6195065379  IM1H      43              0.0000000000
       846        43  IM1H      N1             29.0185433756       14.2956169156      -18.5275774940  IM1H      43              0.0000000000
       847        43  IM1H      DN1            29.0340905876       14.3004551583      -18.5309690983  IM1H      43              0.0000000000
       848        43  IM1H      C2             29.7664390213       13.7870798704      -17.4970316404  IM1H      43              0.0000000000
       849        43  IM1H      DC2            29.7581406226       13.7980317317      -17.5263785014  IM1H      43              0.0000000000
       850        43  IM1H      H4             29.3184409526       13.1844883767      -16.7166021291  IM1H      43              0.0000000000
       851        43  IM1H      C3             31.0664864358       14.1947630144      -17.6682770865  IM1H      43              0.0000000000
       852        43  IM1H      DC3            31.0633806178       14.2013534195      -17.6794809418  IM1H      43              0.0000000000
       853        43  IM1H      H5             31.9489703310       13.9876407327      -17.0756460575  IM1H      43              0.0000000000
       854        43  IM1H      C4             29.8444617105       14.9985036025      -19.3122700712  IM1H      43              0.0000000000
       855        43  IM1H      DC4            29.8294035779       14.9973178164      -19.3021132903  IM1H      43              0.0000000000
       856        43  IM1H      H6             29.5324172653       15.5089111653      -20.2234299826  IM1H      43              0.0000000000
       857        43  IM1H      N2             31.0975962715       14.9637765833      -18.8058319994  IM1H      43              0.0000000000
       858        43  IM1H      DN2            31.0935360937       14.9654743584      -18.8106509252  IM1H      43              0.0000000000
       859        43  IM1H      H7             31.9043832157       15.4180954879      -19.1835741879  IM1H      43              0.0000000000
       860        43  IM1H      LPN21          31.3371131590       15.1007598065      -18.9235913183  IM1H      43              0.0000000000
       861        44  IM1H      C1             18.5974040372       12.4085516005        3.9568585649  IM1H      44              0.0000000000
       862        44  IM1H      DC1            18.5910972184       12.3856357378        3.9652218572  IM1H      44              0.0000000000
       863        44  IM1H      H1             18.1701190148       12.8363979600        3.0248199369  IM1H      44              0.0000000000
       864        44  IM1H      H2             19.7042871602       12.3703549867        3.8692699164  IM1H      44              0.0000000000
       865        44  IM1H      H3             18.3013336312       13.0426596435        4.8197434381  IM1H      44              0.0000000000
       866        44  IM1H      N1             18.0804132394       11.0408902011        4.1275531195  IM1H      44              0.0000000000
       867        44  IM1H      DN1            18.0712276166       11.0224445048        4.1375050693  IM1H      44              0.0000000000
       868        44  IM1H      C2             18.2531034169       10.0043495762        3.2477035806  IM1H      44              0.0000000000
       869        44  IM1H      DC2            18.2505389653       10.0176338349        3.2665097700  IM1H      44              0.0000000000
       870        44  IM1H      H4             18.7958319824       10.1599990481        2.3235239736  IM1H      44              0.0000000000
       871        44  IM1H      C3             17.6011764681        8.9011154976        3.7423855662  IM1H      44              0.0000000000
       872        44  IM1H      DC3            17.6035217779        8.9113856610        3.7511950098  IM1H      44              0.0000000000
       873        44  IM1H      H5             17.4787716175        7.9003858769        3.3468526609  IM1H      44              0.0000000000
       874        44  IM1H      C4             17.3446940189       10.5747420765        5.1427887213  IM1H      44              0.0000000000
       875        44  IM1H      DC4            17.3536576476       10.5901850584        5.1450522184  IM1H      44              0.0000000000
       876        44  IM1H      H6             17.0436670610       11.1741635579        6.0019607985  IM1H      44              0.0000000000
       877        44  IM1H      N2             17.0399361722        9.2741285268        4.9352448000  IM1H      44              0.0000000000
       878        44  IM1H      DN2            17.0418687362        9.2843931001        4.9407755555  IM1H      44              0.0000000000
       879        44  IM1H      H7             16.4820277986        8.6801935252        5.5148821526  IM1H      44              0.0000000000
       880        44  IM1H      LPN21          16.8782253077        9.1009608570        5.1192626101  IM1H      44              0.0000000000
       881        45  IM1H      C1             -7.7849222724       31.6461337641        7.9053407726  IM1H      45              0.0000000000
       882        45  IM1H      DC1            -7.7955857441       31.6472182138        7.9042984510  IM1H      45              0.0000000000
       883        45  IM1H      H1             -8.5460809783       30.8475573306        8.0366195028  IM1H      45              0.0000000000
       884        45  IM1H      H2             -6.9343149641       31.2634950555        7.3017052631  IM1H      45              0.0000000000
       885        45  IM1H      H3             -8.2289527673       32.5340510414        7.4065814838  IM1H      45              0.0000000000
       886        45  IM1H      N1             -7.2798896695       32.0420642042        9.2242560971  IM1H      45              0.0000000000
       887        45  IM1H      DN1            -7.2842962143       32.0433963599        9.2208023517  IM1H      45              0.0000000000
       888        45  IM1H      C2             -6.6680174909       31.2144488017       10.1286028152  IM1H      45              0.0000000000
       889        45  IM1H      DC2            -6.6848400483       31.2244088738       10.0984270122  IM1H      45              0.0000000000
       890        45  IM1H      H4             -6.5379423638       30.1589991781        9.9236746486  IM1H      45              0.0000000000
       891        45  IM1H      C3             -6.3297892398       31.9613893531       11.2321380189  IM1H      45              0.0000000000
       892        45  IM1H      DC3            -6.3312733111       31.9605729141       11.2031826793  IM1H      45              0.0000000000
       893        45  IM1H      H5             -5.8891156632       31.6894152748       12.1833088244  IM1H      45              0.0000000000
       894        45  IM1H      C4             -7.3212055996       33.2650684809        9.7661378376  IM1H      45              0.0000000000
       895        45  IM1H      DC4            -7.3321921662       33.2500084708        9.7284146800  IM1H      45              0.0000000000
       896        45  IM1H      H6             -7.7857671406       34.1397650037        9.3109581278  IM1H      45              0.0000000000
       897        45  IM1H      N2             -6.7280180096       33.2527305034       10.9778050734  IM1H      45              0.0000000000
       898        45  IM1H      DN2            -6.7284879138       33.2499520324       10.9503850864  IM1H      45              0.0000000000
       899        45  IM1H      H7             -6.7521839550       33.9827835193       11.6607681771  IM1H      45              0.0000000000
       900        45  IM1H      LPN21          -6.6917017290       33.4911649314       11.1562151384  IM1H      45              0.0000000000
       901        46  IM1H      C1             -7.2441521074      -17.5839606105       21.9124252566  IM1H      46              0.0000000000
       902        46  IM1H      DC1            -7.2275471797      -17.6045983855       21.9111784874  IM1H      46              0.0000000000
       903        46  IM1H      H1             -6.2655657203      -17.2351745028       21.5186766886  IM1H      46              0.0000000000
       904        46  IM1H      H2             -7.4784382929      -17.0872933065       22.8782164206  IM1H      46              0.0000000000
       905        46  IM1H      H3             -8.0520468311      -17.3461968626       21.1877905090  IM1H      46              0.0000000000
       906        46  IM1H      N1             -7.1941034978      -19.0351260642       22.1068347070  IM1H      46              0.0000000000
       907        46  IM1H      DN1            -7.1810652088      -19.0526534038       22.1139174691  IM1H      46              0.0000000000
       908        46  IM1H      C2             -6.2532547864      -19.7279003638       22.8265579689  IM1H      46              0.0000000000
       909        46  IM1H      DC2            -6.2526816232      -19.7292537995       22.8201034930  IM1H      46              0.0000000000
       910        46  IM1H      H4             -5.5109139521      -19.1834512060       23.3969913132  IM1H      46              0.0000000000
       911        46  IM1H      C3             -6.5008850187      -21.0722647406       22.6690385187  IM1H      46              0.0000000000
       912        46  IM1H      DC3            -6.4875204171      -21.0759117100       22.6762046921  IM1H      46              0.0000000000
       913        46  IM1H      H5             -6.0140869120      -21.9474292232       23.0813536067  IM1H      46              0.0000000000
       914        46  IM1H      C4             -7.9936402113      -19.9345216360       21.5231630450  IM1H      46              0.0000000000
       915        46  IM1H      DC4            -7.9540889162      -19.9180004873       21.5393326616  IM1H      46              0.0000000000
       916        46  IM1H      H6             -8.8323261838      -19.7079183452       20.8648646414  IM1H      46              0.0000000000
       917        46  IM1H      N2             -7.5934019376      -21.1824139561       21.8418572089  IM1H      46              0.0000000000
       918        46  IM1H      DN2            -7.5751427592      -21.1819816713       21.8507665237  IM1H      46              0.0000000000
       919        46  IM1H      H7             -8.0692947688      -22.0026508691       21.5244656215  IM1H      46              0.0000000000
       920        46  IM1H      LPN21          -7.7226829641      -21.4359274241       21.7468975453  IM1H      46              0.0000000000
       921        47  IM1H      C1             20.1624563528      -10.0515851281       -8.1399016633  IM1H      47              0.0000000000
       922        47  IM1H      DC1            20.1647187857      -10.0482837075       -8.1704369444  IM1H      47              0.0000000000
       923        47  IM1H      H1             19.2040778506       -9.7358804036       -7.6749692236  IM1H      47              0.0000000000
       924        47  IM1H      H2             20.9604638743       -9.3152969910       -7.9045619594  IM1H      47              0.0000000000
       925        47  IM1H      H3             20.4389408133      -11.0522015464       -7.7441187341  IM1H      47              0.0000000000
       926        47  IM1H      N1             19.9962193298      -10.1226142666       -9.5979878388  IM1H      47              0.0000000000
       927        47  IM1H      DN1            19.9919057125      -10.1197017299       -9.6228307836  IM1H      47              0.0000000000
       928        47  IM1H      C2             19.6231986795       -9.0985805646      -10.4330481436  IM1H      47              0.0000000000
       929        47  IM1H      DC2            19.6228937552       -9.1140379196      -10.4336658874  IM1H      47              0.0000000000
       930        47  IM1H      H4             19.4515464280       -8.1076196904      -10.0312757555  IM1H      47              0.0000000000
       931        47  IM1H      C3             19.5651447229       -9.5904689624      -11.7156937690  IM1H      47              0.0000000000
       932        47  IM1H      DC3            19.5732785266       -9.5785155549      -11.7214544608  IM1H      47              0.0000000000
       933        47  IM1H      H5             19.2719775333       -9.1315304174      -12.6518120366  IM1H      47              0.0000000000
       934        47  IM1H      C4             20.1742996562      -11.2058939855      -10.3574293133  IM1H      47              0.0000000000
       935        47  IM1H      DC4            20.1737891573      -11.1878754255      -10.3467626278  IM1H      47              0.0000000000
       936        47  IM1H      H6             20.4221414535      -12.1915118851       -9.9634346440  IM1H      47              0.0000000000
       937        47  IM1H      N2             19.9048321958      -10.9181914593      -11.6455788847  IM1H      47              0.0000000000
       938        47  IM1H      DN2            19.8920501201      -10.9070500591      -11.6363142297  IM1H      47              0.0000000000
       939        47  IM1H      H7             20.0702143893      -11.5300836976      -12.4190364587  IM1H      47              0.0000000000
       940        47  IM1H      LPN21          19.9179868317      -11.1128464469      -11.8734744558  IM1H      47              0.0000000000
       941        48  IM1H      C1            -19.3132964793       18.5527071840       21.4714296026  IM1H      48              0.0000000000
       942        48  IM1H      DC1           -19.3119168577       18.5667923495       21.4690328124  IM1H      48              0.0000000000
       943        48  IM1H      H1            -18.8860969666       18.8190260335       22.4618314642  IM1H      48              0.0000000000
       944        48  IM1H      H2            -19.3370436988       17.4477035483       21.3586287399  IM1H      48              0.0000000000
       945        48  IM1H      H3            -20.3376501179       18.9698990667       21.3666844000  IM1H      48              0.0000000000
       946        48  IM1H      N1            -18.4633468039       19.1121664660       20.4176616050  IM1H      48              0.0000000000
       947        48  IM1H      DN1           -18.4700806722       19.1260958089       20.4092911530  IM1H      48              0.0000000000
       948        48  IM1H      C2            -17.1409815307       18.8346481648       20.2489645557  IM1H      48              0.0000000000
       949        48  IM1H      DC2           -17.1734709605       18.8672258764       20.2716331739  IM1H      48              0.0000000000
       950        48  IM1H      H4            -16.6410507483       18.0759426601       20.8383067071  IM1H      48              0.0000000000
       951        48  IM1H      C3            -16.7071937499       19.4849398290       19.1196922234  IM1H      48              0.0000000000
       952        48  IM1H      DC3           -16.7219651432       19.5142493057       19.1262995215  IM1H      48              0.0000000000
       953        48  IM1H      H5            -15.7484101211       19.4326390920       18.6188054238  IM1H      48              0.0000000000
       954        48  IM1H      C4            -18.8298168649       19.9224705736       19.4173753017  IM1H      48              0.0000000000
       955        48  IM1H      DC4           -18.8437595673       19.9271252434       19.4351920916  IM1H      48              0.0000000000
       956        48  IM1H      H6            -19.8468650412       20.2818606091       19.2606851314  IM1H      48              0.0000000000
       957        48  IM1H      N2            -17.7756151916       20.1680213560       18.6114423745  IM1H      48              0.0000000000
       958        48  IM1H      DN2           -17.7921649184       20.1823410450       18.6098309750  IM1H      48              0.0000000000
       959        48  IM1H      H7            -17.7691238132       20.6847085594       17.7552927405  IM1H      48              0.0000000000
       960        48  IM1H      LPN21         -17.7783169031       20.3411507905       18.3664548244  IM1H      48              0.0000000000
       961        49  IM1H      C1            -16.4766543529      -10.9337631700       17.6675778473  IM1H      49              0.0000000000
       962        49  IM1H      DC1           -16.4855997301      -10.9617872757       17.6619697273  IM1H      49              0.0000000000
       963        49  IM1H      H1            -15.6511488662      -11.6487850504       17.4636038243  IM1H      49              0.0000000000
       964        49  IM1H      H2            -16.0698410990      -10.0191366267       18.1495345519  IM1H      49              0.0000000000
       965        49  IM1H      H3            -17.0031209315      -10.6536478295       16.7301935407  IM1H      49              0.0000000000
       966        49  IM1H      N1            -17.4223829943      -11.5576174325       18.5951313217  IM1H      49              0.0000000000
       967        49  IM1H      DN1           -17.4290882912      -11.5688931682       18.6022550151  IM1H      49              0.0000000000
       968        49  IM1H      C2            -17.1353189011      -11.9801893333       19.8674723444  IM1H      49              0.0000000000
       969        49  IM1H      DC2           -17.1472281630      -11.9881024267       19.8490349854  IM1H      49              0.0000000000
       970        49  IM1H      H4            -16.1455264428      -11.8118801050       20.2735165452  IM1H      49              0.0000000000
       971        49  IM1H      C3            -18.2855826553      -12.4977029277       20.4146219122  IM1H      49              0.0000000000
       972        49  IM1H      DC3           -18.2827780007      -12.5035802986       20.4170877058  IM1H      49              0.0000000000
       973        49  IM1H      H5            -18.5005301579      -12.9022523585       21.3959609616  IM1H      49              0.0000000000
       974        49  IM1H      C4            -18.7133239710      -11.8131352678       18.3702747039  IM1H      49              0.0000000000
       975        49  IM1H      DC4           -18.6788052037      -11.8264453367       18.3630549621  IM1H      49              0.0000000000
       976        49  IM1H      H6            -19.2779307585      -11.4751669051       17.5013117800  IM1H      49              0.0000000000
       977        49  IM1H      N2            -19.2575802996      -12.4082111267       19.4516789468  IM1H      49              0.0000000000
       978        49  IM1H      DN2           -19.2457311503      -12.4132234962       19.4527423771  IM1H      49              0.0000000000
       979        49  IM1H      H7            -20.2353995750      -12.5905439115       19.5547528050  IM1H      49              0.0000000000
       980        49  IM1H      LPN21         -19.5414068180      -12.5028313346       19.4738041291  IM1H      49              0.0000000000
       981        50  IM1H      C1             28.8196574876      -18.8326906740       32.6626704887  IM1H      50              0.0000000000
       982        50  IM1H      DC1            28.8092744643      -18.8369246643       32.6690899855  IM1H      50              0.0000000000
       983        50  IM1H      H1             29.1786694917      -19.6254359812       31.9720285705  IM1H      50              0.0000000000
       984        50  IM1H      H2             29.4820134565      -18.7799786991       33.5530788322  IM1H      50              0.0000000000
       985        50  IM1H      H3             28.8092664864      -17.8513302745       32.1419548322  IM1H      50              0.0000000000
       986        50  IM1H      N1             27.4579406686      -19.1686162020       33.0995667728  IM1H      50              0.0000000000
       987        50  IM1H      DN1            27.4447113845      -19.1691160428       33.1022243847  IM1H      50              0.0000000000
       988        50  IM1H      C2             27.0905501005      -20.2858605017       33.8050714578  IM1H      50              0.0000000000
       989        50  IM1H      DC2            27.0912277868      -20.2661517702       33.7889798994  IM1H      50              0.0000000000
       990        50  IM1H      H4             27.8319216957      -21.0178547361       34.1007767173  IM1H      50              0.0000000000
       991        50  IM1H      C3             25.7366929809      -20.2235917960       34.0327200098  IM1H      50              0.0000000000
       992        50  IM1H      DC3            25.7363744066      -20.2175268094       34.0203300073  IM1H      50              0.0000000000
       993        50  IM1H      H5             25.0814187774      -20.8967970434       34.5715144168  IM1H      50              0.0000000000
       994        50  IM1H      C4             26.3544228712      -18.4378769202       32.9026572801  IM1H      50              0.0000000000
       995        50  IM1H      DC4            26.3688264846      -18.4469523909       32.9042494203  IM1H      50              0.0000000000
       996        50  IM1H      H6             26.3598724366      -17.4781676882       32.3859092814  IM1H      50              0.0000000000
       997        50  IM1H      N2             25.2870520846      -19.0585034213       33.4565529800  IM1H      50              0.0000000000
       998        50  IM1H      DN2            25.2885244506      -19.0546267021       33.4519816751  IM1H      50              0.0000000000
       999        50  IM1H      H7             24.3438797295      -18.7267113205       33.4749896406  IM1H      50              0.0000000000
      1000        50  IM1H      LPN21          25.0047298743      -18.9571290407       33.4523811059  IM1H      50              0.0000000000
      1001        51  IM1H      C1             12.5644040416      -25.6564141332       15.2619952067  IM1H      51              0.0000000000
      1002        51  IM1H      DC1            12.5486106653      -25.6703071102       15.2601853120  IM1H      51              0.0000000000
      1003        51  IM1H      H1             13.0211439725      -25.1954577082       14.3602032075  IM1H      51              0.0000000000
      1004        51  IM1H      H2             13.2968305439      -25.6334420599       16.0970668826  IM1H      51              0.0000000000
      1005        51  IM1H      H3             11.6487126595      -25.1076001014       15.5696207126  IM1H      51              0.0000000000
      1006        51  IM1H      N1             12.2277338435      -27.0494339112       14.9592116078  IM1H      51              0.0000000000
      1007        51  IM1H      DN1            12.2115792746      -27.0634776122       14.9613298878  IM1H      51              0.0000000000
      1008        51  IM1H      C2             13.1237185310      -28.0328441612       14.6334663653  IM1H      51              0.0000000000
      1009        51  IM1H      DC2            13.0799361440      -28.0257851206       14.6433485022  IM1H      51              0.0000000000
      1010        51  IM1H      H4             14.1860763907      -27.8270234048       14.5896189693  IM1H      51              0.0000000000
      1011        51  IM1H      C3             12.4209298183      -29.1944212672       14.4285434719  IM1H      51              0.0000000000
      1012        51  IM1H      DC3            12.4046611138      -29.2008370310       14.4288075705  IM1H      51              0.0000000000
      1013        51  IM1H      H5             12.7779220287      -30.1868992420       14.1827121656  IM1H      51              0.0000000000
      1014        51  IM1H      C4             11.0077162126      -27.5994553850       14.9577800571  IM1H      51              0.0000000000
      1015        51  IM1H      DC4            11.0113029190      -27.5918333634       14.9621222038  IM1H      51              0.0000000000
      1016        51  IM1H      H6             10.0955030988      -27.0556917056       15.2033168123  IM1H      51              0.0000000000
      1017        51  IM1H      N2             11.0919703741      -28.9071472762       14.6287077947  IM1H      51              0.0000000000
      1018        51  IM1H      DN2            11.0858372718      -28.9036531512       14.6322013816  IM1H      51              0.0000000000
      1019        51  IM1H      H7             10.3339406377      -29.5546749885       14.5506131047  IM1H      51              0.0000000000
      1020        51  IM1H      LPN21          10.8606756231      -29.0966986252       14.6047698688  IM1H      51              0.0000000000
      1021        52  IM1H      C1             24.7054239262       30.9092904720       36.0132903760  IM1H      52              0.0000000000
      1022        52  IM1H      DC1            24.7019233858       30.9126196503       36.0305965785  IM1H      52              0.0000000000
      1023        52  IM1H      H1             25.3841189499       31.2625540103       35.2077477399  IM1H      52              0.0000000000
      1024        52  IM1H      H2             25.2682760991       30.8624399968       36.9700157624  IM1H      52              0.0000000000
      1025        52  IM1H      H3             23.8217750032       31.5800496320       36.0730208544  IM1H      52              0.0000000000
      1026        52  IM1H      N1             24.2553570512       29.5606494279       35.6733052391  IM1H      52              0.0000000000
      1027        52  IM1H      DN1            24.2478752679       29.5616337323       35.6787146368  IM1H      52              0.0000000000
      1028        52  IM1H      C2             25.0959305705       28.4998038460       35.4887099310  IM1H      52              0.0000000000
      1029        52  IM1H      DC2            25.0657969838       28.5240121132       35.5021054475  IM1H      52              0.0000000000
      1030        52  IM1H      H4             26.1568718056       28.5853915783       35.6886285034  IM1H      52              0.0000000000
      1031        52  IM1H      C3             24.3642902362       27.4671179724       34.9567867117  IM1H      52              0.0000000000
      1032        52  IM1H      DC3            24.3517920470       27.4737344498       34.9755646734  IM1H      52              0.0000000000
      1033        52  IM1H      H5             24.6861914647       26.5054821678       34.5766220392  IM1H      52              0.0000000000
      1034        52  IM1H      C4             23.0308356049       29.1790747163       35.2879893955  IM1H      52              0.0000000000
      1035        52  IM1H      DC4            23.0392976252       29.1902877830       35.3133588642  IM1H      52              0.0000000000
      1036        52  IM1H      H6             22.1644060204       29.8389726569       35.2440066351  IM1H      52              0.0000000000
      1037        52  IM1H      N2             23.0658240963       27.9016187229       34.8523249002  IM1H      52              0.0000000000
      1038        52  IM1H      DN2            23.0576302351       27.9079283215       34.8637346861  IM1H      52              0.0000000000
      1039        52  IM1H      H7             22.3304732084       27.4078197254       34.3881895516  IM1H      52              0.0000000000
      1040        52  IM1H      LPN21          22.8306609074       27.7447868013       34.7518160800  IM1H      52              0.0000000000
      1041        53  IM1H      C1            -11.6754863098       31.2851701767       10.7990660501  IM1H      53              0.0000000000
      1042        53  IM1H      DC1           -11.6823207882       31.2694243353       10.7923236681  IM1H      53              0.0000000000
      1043        53  IM1H      H1            -12.7133106999       31.3396031022       10.4062829109  IM1H      53              0.0000000000
      1044        53  IM1H      H2            -10.9847809229       30.8620451475       10.0386633415  IM1H      53              0.0000000000
      1045        53  IM1H      H3            -11.3294407438       32.2993860201       11.0922207690  IM1H      53              0.0000000000
      1046        53  IM1H      N1            -11.6555441684       30.4179834975       11.9850230489  IM1H      53              0.0000000000
      1047        53  IM1H      DN1           -11.6647461997       30.4035869544       11.9846082870  IM1H      53              0.0000000000
      1048        53  IM1H      C2            -11.9756529711       29.0848079698       12.0172666531  IM1H      53              0.0000000000
      1049        53  IM1H      DC2           -11.9799867856       29.0952541861       12.0146326960  IM1H      53              0.0000000000
      1050        53  IM1H      H4            -12.2787011124       28.5764857561       11.1102609457  IM1H      53              0.0000000000
      1051        53  IM1H      C3            -11.7780954067       28.6291425679       13.2998479243  IM1H      53              0.0000000000
      1052        53  IM1H      DC3           -11.7955517971       28.6220329412       13.2958214486  IM1H      53              0.0000000000
      1053        53  IM1H      H5            -11.8598470922       27.6382822136       13.7292677891  IM1H      53              0.0000000000
      1054        53  IM1H      C4            -11.2848852730       30.7661304020       13.2211982286  IM1H      53              0.0000000000
      1055        53  IM1H      DC4           -11.3182033841       30.7408237395       13.1918992575  IM1H      53              0.0000000000
      1056        53  IM1H      H6            -10.8943468603       31.7467876726       13.4930273402  IM1H      53              0.0000000000
      1057        53  IM1H      N2            -11.3510484530       29.7006443008       14.0461066970  IM1H      53              0.0000000000
      1058        53  IM1H      DN2           -11.3660362424       29.6913176217       14.0398149778  IM1H      53              0.0000000000
      1059        53  IM1H      H7            -11.0099022942       29.7016319495       14.9861164431  IM1H      53              0.0000000000
      1060        53  IM1H      LPN21         -11.2838787283       29.7018147609       14.3384880543  IM1H      53              0.0000000000
      1061        54  IM1H      C1            -10.6780210571      -26.1609621905        3.8446902498  IM1H      54              0.0000000000
      1062        54  IM1H      DC1           -10.6802245312      -26.1517710983        3.8353101415  IM1H      54              0.0000000000
      1063        54  IM1H      H1            -11.0018834411      -25.4359271246        4.6217091102  IM1H      54              0.0000000000
      1064        54  IM1H      H2             -9.6206373027      -26.4569117781        4.0140255329  IM1H      54              0.0000000000
      1065        54  IM1H      H3            -11.3298084080      -27.0601487761        3.8756375459  IM1H      54              0.0000000000
      1066        54  IM1H      N1            -10.7894276139      -25.5372407288        2.5205358870  IM1H      54              0.0000000000
      1067        54  IM1H      DN1           -10.7902822155      -25.5292453680        2.5099838428  IM1H      54              0.0000000000
      1068        54  IM1H      C2            -10.1289256534      -24.4118358196        2.1074682178  IM1H      54              0.0000000000
      1069        54  IM1H      DC2           -10.1405603992      -24.4218341375        2.1166524670  IM1H      54              0.0000000000
      1070        54  IM1H      H4             -9.4413874526      -23.9084779714        2.7759075189  IM1H      54              0.0000000000
      1071        54  IM1H      C3            -10.4989499020      -24.1467202982        0.8095282983  IM1H      54              0.0000000000
      1072        54  IM1H      DC3           -10.5036783543      -24.1469492517        0.8227510838  IM1H      54              0.0000000000
      1073        54  IM1H      H5            -10.1979829777      -23.3746570667        0.1122290246  IM1H      54              0.0000000000
      1074        54  IM1H      C4            -11.5416536570      -25.9529683431        1.4954065888  IM1H      54              0.0000000000
      1075        54  IM1H      DC4           -11.5267602553      -25.9501624095        1.5127199804  IM1H      54              0.0000000000
      1076        54  IM1H      H6            -12.1904201266      -26.8283140661        1.5265824322  IM1H      54              0.0000000000
      1077        54  IM1H      N2            -11.3825324967      -25.1253424670        0.4398988077  IM1H      54              0.0000000000
      1078        54  IM1H      DN2           -11.3837620539      -25.1268060587        0.4442922250  IM1H      54              0.0000000000
      1079        54  IM1H      H7            -11.8169440175      -25.2071126520       -0.4570963246  IM1H      54              0.0000000000
      1080        54  IM1H      LPN21         -11.5179011536      -25.1535946619        0.1736711979  IM1H      54              0.0000000000
      1081        55  IM1H      C1            -21.2534271051       10.6722998072      -20.5680511369  IM1H      55              0.0000000000
      1082        55  IM1H      DC1           -21.2346911184       10.6471256841      -20.5799724094  IM1H      55              0.0000000000
      1083        55  IM1H      H1            -21.3445313567       11.6789079092      -21.0293115216  IM1H      55              0.0000000000
      1084        55  IM1H      H2            -20.3485058379       10.6287623131      -19.9249780547  IM1H      55              0.0000000000
      1085        55  IM1H      H3            -22.1716187905       10.4697214338      -19.9762682109  IM1H      55              0.0000000000
      1086        55  IM1H      N1            -21.1385530603        9.6749407518      -21.6350946493  IM1H      55              0.0000000000
      1087        55  IM1H      DN1           -21.1377391280        9.6425825352      -21.6533647869  IM1H      55              0.0000000000
      1088        55  IM1H      C2            -20.1463032661        9.6319819444      -22.5713605195  IM1H      55              0.0000000000
      1089        55  IM1H      DC2           -20.1635295562        9.6212773957      -22.5676021393  IM1H      55              0.0000000000
      1090        55  IM1H      H4            -19.3594513963       10.3760161647      -22.5584681095  IM1H      55              0.0000000000
      1091        55  IM1H      C3            -20.3779494552        8.5570443934      -23.3935173805  IM1H      55              0.0000000000
      1092        55  IM1H      DC3           -20.3873683225        8.5482360777      -23.3934444596  IM1H      55              0.0000000000
      1093        55  IM1H      H5            -19.8214142311        8.1901559648      -24.2470690341  IM1H      55              0.0000000000
      1094        55  IM1H      C4            -21.9601196782        8.6481773534      -21.8778576555  IM1H      55              0.0000000000
      1095        55  IM1H      DC4           -21.9644292727        8.6310783117      -21.8811944921  IM1H      55              0.0000000000
      1096        55  IM1H      H6            -22.8434433726        8.4690048881      -21.2648841826  IM1H      55              0.0000000000
      1097        55  IM1H      N2            -21.5182977862        7.9468729548      -22.9467661337  IM1H      55              0.0000000000
      1098        55  IM1H      DN2           -21.5323494905        7.9354173293      -22.9517163023  IM1H      55              0.0000000000
      1099        55  IM1H      H7            -21.9013482508        7.1164825415      -23.3513944866  IM1H      55              0.0000000000
      1100        55  IM1H      LPN21         -21.6484230504        7.7026372716      -23.0625950879  IM1H      55              0.0000000000
      1101        56  IM1H      C1             11.8265363296        3.4537947252        8.9857519102  IM1H      56              0.0000000000
      1102        56  IM1H      DC1            11.8056537952        3.4620469805        8.9618473643  IM1H      56              0.0000000000
      1103        56  IM1H      H1             12.8134287841        3.5397165828        8.4827790289  IM1H      56              0.0000000000
      1104        56  IM1H      H2             11.4414902979        2.4162443378        8.8880291026  IM1H      56              0.0000000000
      1105        56  IM1H      H3             11.9453718592        3.7096379419       10.0603417689  IM1H      56              0.0000000000
      1106        56  IM1H      N1             10.8628916428        4.3626872816        8.3475335786  IM1H      56              0.0000000000
      1107        56  IM1H      DN1            10.8509678180        4.3725030009        8.3322634194  IM1H      56              0.0000000000
      1108        56  IM1H      C2             10.4970879014        4.3265657877        7.0260000345  IM1H      56              0.0000000000
      1109        56  IM1H      DC2            10.5032722766        4.3282565606        7.0311141554  IM1H      56              0.0000000000
      1110        56  IM1H      H4             10.9091183155        3.5628759204        6.3780048752  IM1H      56              0.0000000000
      1111        56  IM1H      C3              9.6039445561        5.3469607593        6.8003290002  IM1H      56              0.0000000000
      1112        56  IM1H      DC3             9.6108122590        5.3445325475        6.7899668015  IM1H      56              0.0000000000
      1113        56  IM1H      H5              9.0755590156        5.6641864208        5.9097866934  IM1H      56              0.0000000000
      1114        56  IM1H      C4             10.2136843823        5.3874118276        8.9138509285  IM1H      56              0.0000000000
      1115        56  IM1H      DC4            10.2257038611        5.3678996270        8.8964877512  IM1H      56              0.0000000000
      1116        56  IM1H      H6             10.3236485921        5.6848557197        9.9567003922  IM1H      56              0.0000000000
      1117        56  IM1H      N2              9.4336673560        6.0016596302        7.9963478732  IM1H      56              0.0000000000
      1118        56  IM1H      DN2             9.4411431280        5.9976433299        7.9880537234  IM1H      56              0.0000000000
      1119        56  IM1H      H7              8.8100244204        6.7625657564        8.1754884776  IM1H      56              0.0000000000
      1120        56  IM1H      LPN21           9.2565664240        6.2381663350        8.0483078433  IM1H      56              0.0000000000
      1121        57  IM1H      C1             -8.9384994547       23.2282887604      -31.8107685406  IM1H      57              0.0000000000
      1122        57  IM1H      DC1            -8.9560585333       23.2212752621      -31.8141211847  IM1H      57              0.0000000000
      1123        57  IM1H      H1             -9.0360830291       24.1453204057      -31.1912111112  IM1H      57              0.0000000000
      1124        57  IM1H      H2             -9.7824934911       23.1569469043      -32.5297298789  IM1H      57              0.0000000000
      1125        57  IM1H      H3             -7.9675125771       23.2511371255      -32.3501973474  IM1H      57              0.0000000000
      1126        57  IM1H      N1             -8.9598771324       22.0854333931      -30.8907398239  IM1H      57              0.0000000000
      1127        57  IM1H      DN1            -8.9705805187       22.0787221729      -30.8898429693  IM1H      57              0.0000000000
      1128        57  IM1H      C2             -9.9371496421       21.8236365617      -29.9641774042  IM1H      57              0.0000000000
      1129        57  IM1H      DC2            -9.9395823643       21.8279941775      -29.9913632584  IM1H      57              0.0000000000
      1130        57  IM1H      H4            -10.7989011329       22.4736983697      -29.8764675768  IM1H      57              0.0000000000
      1131        57  IM1H      C3             -9.5581601497       20.7158353858      -29.2443571857  IM1H      57              0.0000000000
      1132        57  IM1H      DC3            -9.5732695730       20.7250909417      -29.2623340259  IM1H      57              0.0000000000
      1133        57  IM1H      H5            -10.0200192612       20.1959974577      -28.4140899458  IM1H      57              0.0000000000
      1134        57  IM1H      C4             -7.9977697051       21.1714768516      -30.7230468068  IM1H      57              0.0000000000
      1135        57  IM1H      DC4            -8.0183946904       21.1999605823      -30.7297309646  IM1H      57              0.0000000000
      1136        57  IM1H      H6             -7.0635638294       21.1583136877      -31.2844611929  IM1H      57              0.0000000000
      1137        57  IM1H      N2             -8.3376598091       20.3200862130      -29.7278764016  IM1H      57              0.0000000000
      1138        57  IM1H      DN2            -8.3442299087       20.3392607232      -29.7355382029  IM1H      57              0.0000000000
      1139        57  IM1H      H7             -7.8182933134       19.5230646564      -29.4196312369  IM1H      57              0.0000000000
      1140        57  IM1H      LPN21          -8.1735505933       20.0877345961      -29.6325826901  IM1H      57              0.0000000000
      1141        58  IM1H      C1            -33.2976515635       13.9587534475       30.8832957911  IM1H      58              0.0000000000
      1142        58  IM1H      DC1           -33.3063758398       13.9732016991       30.8823410883  IM1H      58              0.0000000000
      1143        58  IM1H      H1            -33.7377509833       12.9870605857       30.5727374486  IM1H      58              0.0000000000
      1144        58  IM1H      H2            -33.3294138711       14.0498323095       31.9901005601  IM1H      58              0.0000000000
      1145        58  IM1H      H3            -32.2468249958       14.0188030910       30.5276575405  IM1H      58              0.0000000000
      1146        58  IM1H      N1            -34.0884602158       15.0512379532       30.2911119728  IM1H      58              0.0000000000
      1147        58  IM1H      DN1           -34.0930685174       15.0640880537       30.2849245911  IM1H      58              0.0000000000
      1148        58  IM1H      C2            -35.4230435618       15.2831513866       30.5070929254  IM1H      58              0.0000000000
      1149        58  IM1H      DC2           -35.4006062327       15.2801475002       30.5049220158  IM1H      58              0.0000000000
      1150        58  IM1H      H4            -35.9945712747       14.6332962149       31.1581945536  IM1H      58              0.0000000000
      1151        58  IM1H      C3            -35.7938616195       16.3869943587       29.7768744968  IM1H      58              0.0000000000
      1152        58  IM1H      DC3           -35.7806358945       16.3785114756       29.7811014755  IM1H      58              0.0000000000
      1153        58  IM1H      H5            -36.7411698623       16.8989076265       29.6609395999  IM1H      58              0.0000000000
      1154        58  IM1H      C4            -33.6550125557       15.9960062992       29.4469054731  IM1H      58              0.0000000000
      1155        58  IM1H      DC4           -33.6488538458       15.9835367352       29.4611361595  IM1H      58              0.0000000000
      1156        58  IM1H      H6            -32.6299927639       16.0597996347       29.0817139662  IM1H      58              0.0000000000
      1157        58  IM1H      N2            -34.6729335511       16.8230929024       29.1179418678  IM1H      58              0.0000000000
      1158        58  IM1H      DN2           -34.6617773487       16.8166991905       29.1211510045  IM1H      58              0.0000000000
      1159        58  IM1H      H7            -34.6564705514       17.6130628580       28.5050173708  IM1H      58              0.0000000000
      1160        58  IM1H      LPN21         -34.6536519952       17.0589105083       28.9335014212  IM1H      58              0.0000000000
      1161        59  IM1H      C1             10.5702373520       11.6061264742       14.8024743116  IM1H      59              0.0000000000
      1162        59  IM1H      DC1            10.5966108240       11.6088995851       14.7938060776  IM1H      59              0.0000000000
      1163        59  IM1H      H1              9.8766660816       12.0486163203       15.5491219063  IM1H      59              0.0000000000
      1164        59  IM1H      H2             10.7383733516       10.5380013743       15.0577389921  IM1H      59              0.0000000000
      1165        59  IM1H      H3             10.1459038902       11.6993058170       13.7799383840  IM1H      59              0.0000000000
      1166        59  IM1H      N1             11.8463155192       12.3227874743       14.8524786046  IM1H      59              0.0000000000
      1167        59  IM1H      DN1            11.8664457272       12.3324976634       14.8492074991  IM1H      59              0.0000000000
      1168        59  IM1H      C2             12.6893302605       12.3777478583       15.9292911429  IM1H      59              0.0000000000
      1169        59  IM1H      DC2            12.6858561964       12.3833903448       15.9110603919  IM1H      59              0.0000000000
      1170        59  IM1H      H4             12.4220901180       11.8657603220       16.8454464076  IM1H      59              0.0000000000
      1171        59  IM1H      C3             13.7824265707       13.1327174984       15.5789464787  IM1H      59              0.0000000000
      1172        59  IM1H      DC3            13.7780487734       13.1390715456       15.5782963614  IM1H      59              0.0000000000
      1173        59  IM1H      H5             14.6737701126       13.4022873078       16.1318730635  IM1H      59              0.0000000000
      1174        59  IM1H      C4             12.4099722696       13.0268602744       13.8652339382  IM1H      59              0.0000000000
      1175        59  IM1H      DC4            12.4066814639       13.0158872404       13.8711140429  IM1H      59              0.0000000000
      1176        59  IM1H      H6             11.9549471212       13.1580298340       12.8834770126  IM1H      59              0.0000000000
      1177        59  IM1H      N2             13.5916557039       13.5335078832       14.2809745640  IM1H      59              0.0000000000
      1178        59  IM1H      DN2            13.5892124720       13.5367300054       14.2771255737  IM1H      59              0.0000000000
      1179        59  IM1H      H7             14.2362494351       14.0780596298       13.7443533596  IM1H      59              0.0000000000
      1180        59  IM1H      LPN21          13.7765650894       13.7028678924       14.1162757283  IM1H      59              0.0000000000
      1181        60  IM1H      C1             -0.8252148875      -18.0883785052      -23.7351536573  IM1H      60              0.0000000000
      1182        60  IM1H      DC1            -0.8176239016      -18.0810381688      -23.7389198796  IM1H      60              0.0000000000
      1183        60  IM1H      H1             -1.5359955023      -18.0428495060      -24.5878194946  IM1H      60              0.0000000000
      1184        60  IM1H      H2             -1.2212061691      -17.5318845771      -22.8588966091  IM1H      60              0.0000000000
      1185        60  IM1H      H3             -0.6152132826      -19.1430943284      -23.4562363610  IM1H      60              0.0000000000
      1186        60  IM1H      N1              0.4055133467      -17.4745267560      -24.1657068523  IM1H      60              0.0000000000
      1187        60  IM1H      DN1             0.4170254644      -17.4659082359      -24.1721720103  IM1H      60              0.0000000000
      1188        60  IM1H      C2              0.5602686943      -16.1799681940      -24.5787710661  IM1H      60              0.0000000000
      1189        60  IM1H      DC2             0.5657237320      -16.1923245693      -24.5714284446  IM1H      60              0.0000000000
      1190        60  IM1H      H4             -0.3049319454      -15.5297013116      -24.6171094884  IM1H      60              0.0000000000
      1191        60  IM1H      C3              1.8834717354      -15.9933697902      -24.8883812774  IM1H      60              0.0000000000
      1192        60  IM1H      DC3             1.8797493752      -15.9846941418      -24.8895576365  IM1H      60              0.0000000000
      1193        60  IM1H      H5              2.4475219070      -15.1373647130      -25.2376543968  IM1H      60              0.0000000000
      1194        60  IM1H      C4              1.5881867542      -18.0726926086      -24.2332309808  IM1H      60              0.0000000000
      1195        60  IM1H      DC4             1.5620569841      -18.0629494264      -24.2382440087  IM1H      60              0.0000000000
      1196        60  IM1H      H6              1.7842368084      -19.1083485323      -23.9555959938  IM1H      60              0.0000000000
      1197        60  IM1H      N2              2.5022143362      -17.1921471663      -24.6719473898  IM1H      60              0.0000000000
      1198        60  IM1H      DN2             2.4878814174      -17.1916011677      -24.6768135231  IM1H      60              0.0000000000
      1199        60  IM1H      H7              3.4799581160      -17.3745651782      -24.7755850765  IM1H      60              0.0000000000
      1200        60  IM1H      LPN21           2.7930252621      -17.2525759396      -24.7141062415  IM1H      60              0.0000000000
      1201        61  IM1H      C1             17.3204360554      -13.6113076154      -19.6043383296  IM1H      61              0.0000000000
      1202        61  IM1H      DC1            17.3421950858      -13.5985052471      -19.5628300720  IM1H      61              0.0000000000
      1203        61  IM1H      H1             17.8618790216      -14.4972052272      -19.9997443685  IM1H      61              0.0000000000
      1204        61  IM1H      H2             17.6499312436      -12.7062130187      -20.1580148542  IM1H      61              0.0000000000
      1205        61  IM1H      H3             16.2296282221      -13.7549546906      -19.7586911376  IM1H      61              0.0000000000
      1206        61  IM1H      N1             17.6062794820      -13.4448691936      -18.1693881041  IM1H      61              0.0000000000
      1207        61  IM1H      DN1            17.6250095887      -13.4298594049      -18.1313016506  IM1H      61              0.0000000000
      1208        61  IM1H      C2             18.8265361159      -13.1299265234      -17.6229960489  IM1H      61              0.0000000000
      1209        61  IM1H      DC2            18.8214798438      -13.1158491527      -17.6063900178  IM1H      61              0.0000000000
      1210        61  IM1H      H4             19.6981622116      -13.1219574137      -18.2657195063  IM1H      61              0.0000000000
      1211        61  IM1H      C3             18.6422099123      -12.8589481819      -16.2870957202  IM1H      61              0.0000000000
      1212        61  IM1H      DC3            18.6542330831      -12.8467368106      -16.2771163328  IM1H      61              0.0000000000
      1213        61  IM1H      H5             19.3445089622      -12.5937792801      -15.5064866644  IM1H      61              0.0000000000
      1214        61  IM1H      C4             16.6989580089      -13.3640699926      -17.1859390522  IM1H      61              0.0000000000
      1215        61  IM1H      DC4            16.7342781357      -13.3492503169      -17.1783525509  IM1H      61              0.0000000000
      1216        61  IM1H      H6             15.6284648554      -13.4906717311      -17.3475447700  IM1H      61              0.0000000000
      1217        61  IM1H      N2             17.2997380690      -12.9968398186      -16.0329826433  IM1H      61              0.0000000000
      1218        61  IM1H      DN2            17.3159333467      -12.9920571018      -16.0198372484  IM1H      61              0.0000000000
      1219        61  IM1H      H7             16.8151287064      -12.8099476635      -15.1784505551  IM1H      61              0.0000000000
      1220        61  IM1H      LPN21          17.1612334228      -12.9540391130      -15.7703335188  IM1H      61              0.0000000000
      1221        62  IM1H      C1             -3.2027063221      -23.8844570613       -4.2806600374  IM1H      62              0.0000000000
      1222        62  IM1H      DC1            -3.2096178837      -23.8936031525       -4.2827683725  IM1H      62              0.0000000000
      1223        62  IM1H      H1             -3.1910637827      -22.9929784775       -4.9435713330  IM1H      62              0.0000000000
      1224        62  IM1H      H2             -2.8213531112      -23.6031221433       -3.2758011446  IM1H      62              0.0000000000
      1225        62  IM1H      H3             -4.2372107229      -24.2821939545       -4.2036729665  IM1H      62              0.0000000000
      1226        62  IM1H      N1             -2.3089816825      -24.9107480778       -4.8478872410  IM1H      62              0.0000000000
      1227        62  IM1H      DN1            -2.3121035638      -24.9165759140       -4.8505823166  IM1H      62              0.0000000000
      1228        62  IM1H      C2             -0.9637391413      -24.7592237789       -5.0736125044  IM1H      62              0.0000000000
      1229        62  IM1H      DC2            -1.0001620828      -24.7703718823       -5.0817862258  IM1H      62              0.0000000000
      1230        62  IM1H      H4             -0.4414213557      -23.8542247780       -4.7889197944  IM1H      62              0.0000000000
      1231        62  IM1H      C3             -0.4863187586      -25.9334699962       -5.6079144870  IM1H      62              0.0000000000
      1232        62  IM1H      DC3            -0.4979996148      -25.9302660759       -5.6136167298  IM1H      62              0.0000000000
      1233        62  IM1H      H5              0.5190393017      -26.2339613033       -5.8759613955  IM1H      62              0.0000000000
      1234        62  IM1H      C4             -2.6371153290      -26.1560937049       -5.2280913030  IM1H      62              0.0000000000
      1235        62  IM1H      DC4            -2.6489593063      -26.1282072877       -5.2240203680  IM1H      62              0.0000000000
      1236        62  IM1H      H6             -3.6272598018      -26.5995048698       -5.1227325645  IM1H      62              0.0000000000
      1237        62  IM1H      N2             -1.5476294954      -26.8025050997       -5.7038174598  IM1H      62              0.0000000000
      1238        62  IM1H      DN2            -1.5589794168      -26.7825094474       -5.7038875264  IM1H      62              0.0000000000
      1239        62  IM1H      H7             -1.4853310481      -27.7580659345       -5.9919535293  IM1H      62              0.0000000000
      1240        62  IM1H      LPN21          -1.5424629353      -27.0831621692       -5.8096707357  IM1H      62              0.0000000000
      1241        63  IM1H      C1             -1.4219011369        0.5064793838       28.7743038611  IM1H      63              0.0000000000
      1242        63  IM1H      DC1            -1.4033757113        0.4886430395       28.7640091129  IM1H      63              0.0000000000
      1243        63  IM1H      H1             -2.2249802666        0.7274785002       29.5095210417  IM1H      63              0.0000000000
      1244        63  IM1H      H2             -1.6740062653       -0.4010034114       28.1850339903  IM1H      63              0.0000000000
      1245        63  IM1H      H3             -1.2947558145        1.3791726315       28.0986104659  IM1H      63              0.0000000000
      1246        63  IM1H      N1             -0.1710358032        0.2691708534       29.5070147513  IM1H      63              0.0000000000
      1247        63  IM1H      DN1            -0.1566368826        0.2613395232       29.5092902019  IM1H      63              0.0000000000
      1248        63  IM1H      C2              0.0376201632       -0.7175223235       30.4355203306  IM1H      63              0.0000000000
      1249        63  IM1H      DC2             0.0430286040       -0.7112682612       30.4158148756  IM1H      63              0.0000000000
      1250        63  IM1H      H4             -0.7612127790       -1.3940392441       30.7131527975  IM1H      63              0.0000000000
      1251        63  IM1H      C3              1.3205524195       -0.5956434817       30.9107779566  IM1H      63              0.0000000000
      1252        63  IM1H      DC3             1.3259953885       -0.5997076627       30.9053775706  IM1H      63              0.0000000000
      1253        63  IM1H      H5              1.8481207444       -1.1635373878       31.6671225697  IM1H      63              0.0000000000
      1254        63  IM1H      C4              0.9593399991        0.9809006235       29.4204001876  IM1H      63              0.0000000000
      1255        63  IM1H      DC4             0.9468105205        0.9600190087       29.4123008063  IM1H      63              0.0000000000
      1256        63  IM1H      H6              1.0819002409        1.8652175790       28.7950502780  IM1H      63              0.0000000000
      1257        63  IM1H      N2              1.8879599356        0.4751409349       30.2618432504  IM1H      63              0.0000000000
      1258        63  IM1H      DN2             1.8920074201        0.4675996213       30.2559045117  IM1H      63              0.0000000000
      1259        63  IM1H      H7              2.7707922476        0.8975895730       30.4671339150  IM1H      63              0.0000000000
      1260        63  IM1H      LPN21           2.1665891822        0.5804153550       30.2976627897  IM1H      63              0.0000000000
      1261        64  IM1H      C1             21.4541788395       18.9560142733       19.2178986928  IM1H      64              0.0000000000
      1262        64  IM1H      DC1            21.4646206946       18.9694298116       19.2215199802  IM1H      64              0.0000000000
      1263        64  IM1H      H1             20.9579846719       18.3710552324       20.0215996751  IM1H      64              0.0000000000
      1264        64  IM1H      H2             22.4051695254       18.4640708477       18.9213698048  IM1H      64              0.0000000000
      1265        64  IM1H      H3             20.7702098181       19.0306501624       18.3455817418  IM1H      64              0.0000000000
      1266        64  IM1H      N1             21.7474343097       20.3033472457       19.7178097782  IM1H      64              0.0000000000
      1267        64  IM1H      DN1            21.7559131749       20.3149100624       19.7331256580  IM1H      64              0.0000000000
      1268        64  IM1H      C2             22.4769725564       20.6016495458       20.8400488202  IM1H      64              0.0000000000
      1269        64  IM1H      DC2            22.4752727775       20.5986284927       20.8393476201  IM1H      64              0.0000000000
      1270        64  IM1H      H4             22.9097491991       19.7940136110       21.4173854414  IM1H      64              0.0000000000
      1271        64  IM1H      C3             22.5083829312       21.9707984649       20.9794601144  IM1H      64              0.0000000000
      1272        64  IM1H      DC3            22.5096795121       21.9638161475       20.9926489914  IM1H      64              0.0000000000
      1273        64  IM1H      H5             22.9810227091       22.6075590863       21.7170484490  IM1H      64              0.0000000000
      1274        64  IM1H      C4             21.3570771662       21.4610123136       19.1770352742  IM1H      64              0.0000000000
      1275        64  IM1H      DC4            21.3568741960       21.4306387038       19.2099615657  IM1H      64              0.0000000000
      1276        64  IM1H      H6             20.7572832361       21.5678655454       18.2731936796  IM1H      64              0.0000000000
      1277        64  IM1H      N2             21.7940214383       22.4937406614       19.9263881632  IM1H      64              0.0000000000
      1278        64  IM1H      DN2            21.7933728852       22.4807566114       19.9488875603  IM1H      64              0.0000000000
      1279        64  IM1H      H7             21.6324957738       23.4468554949       19.6704944862  IM1H      64              0.0000000000
      1280        64  IM1H      LPN21          21.7422737835       22.7837597279       19.8697214066  IM1H      64              0.0000000000
      1281        65  IM1H      C1              6.3750620877       13.4794978257      -28.0125234692  IM1H      65              0.0000000000
      1282        65  IM1H      DC1             6.3844527102       13.4859973495      -27.9546742966  IM1H      65              0.0000000000
      1283        65  IM1H      H1              6.9575602103       12.7008632333      -28.5498735494  IM1H      65              0.0000000000
      1284        65  IM1H      H2              6.8303332058       14.4756093964      -28.1991003971  IM1H      65              0.0000000000
      1285        65  IM1H      H3              5.3366245167       13.4718160703      -28.4073771157  IM1H      65              0.0000000000
      1286        65  IM1H      N1              6.3755964336       13.1891232922      -26.5711343633  IM1H      65              0.0000000000
      1287        65  IM1H      DN1             6.3734083048       13.1851765182      -26.5314421036  IM1H      65              0.0000000000
      1288        65  IM1H      C2              7.4806131861       13.1177589555      -25.7590374431  IM1H      65              0.0000000000
      1289        65  IM1H      DC2             7.4606375360       13.1258616929      -25.7486192035  IM1H      65              0.0000000000
      1290        65  IM1H      H4              8.4709536913       13.2282539510      -26.1831901745  IM1H      65              0.0000000000
      1291        65  IM1H      C3              7.0540078122       12.9154882008      -24.4671731679  IM1H      65              0.0000000000
      1292        65  IM1H      DC3             7.0545323078       12.9110841274      -24.4486676490  IM1H      65              0.0000000000
      1293        65  IM1H      H5              7.6111804031       12.8600577537      -23.5401482656  IM1H      65              0.0000000000
      1294        65  IM1H      C4              5.3008932754       13.0430365324      -25.7865549772  IM1H      65              0.0000000000
      1295        65  IM1H      DC4             5.3117145929       13.0448115969      -25.7793867495  IM1H      65              0.0000000000
      1296        65  IM1H      H6              4.2787200260       13.0774315771      -26.1634884315  IM1H      65              0.0000000000
      1297        65  IM1H      N2              5.6809026551       12.8699778862      -24.5005196252  IM1H      65              0.0000000000
      1298        65  IM1H      DN2             5.6858670514       12.8669319736      -24.4918511186  IM1H      65              0.0000000000
      1299        65  IM1H      H7              5.0620422441       12.7653467601      -23.7220184247  IM1H      65              0.0000000000
      1300        65  IM1H      LPN21           5.4962089334       12.8293411635      -24.2676314848  IM1H      65              0.0000000000
      1301        66  IM1H      C1            -13.7122520980       27.8210727129      -23.0024196374  IM1H      66              0.0000000000
      1302        66  IM1H      DC1           -13.6919119912       27.8122850853      -23.0291657677  IM1H      66              0.0000000000
      1303        66  IM1H      H1            -14.3109651249       26.9040866848      -23.1895034038  IM1H      66              0.0000000000
      1304        66  IM1H      H2            -14.3062272381       28.7303349167      -23.2364212979  IM1H      66              0.0000000000
      1305        66  IM1H      H3            -13.3952915177       27.8495402426      -21.9379730246  IM1H      66              0.0000000000
      1306        66  IM1H      N1            -12.5213468801       27.8012646959      -23.8449077067  IM1H      66              0.0000000000
      1307        66  IM1H      DN1           -12.4920747398       27.7954130435      -23.8597848435  IM1H      66              0.0000000000
      1308        66  IM1H      C2            -12.5071481627       27.7922444202      -25.2119315580  IM1H      66              0.0000000000
      1309        66  IM1H      DC2           -12.4874725161       27.7705247508      -25.1996418889  IM1H      66              0.0000000000
      1310        66  IM1H      H4            -13.4386120636       27.8899505086      -25.7557307136  IM1H      66              0.0000000000
      1311        66  IM1H      C3            -11.1985195659       27.7498665057      -25.6235043937  IM1H      66              0.0000000000
      1312        66  IM1H      DC3           -11.1837393006       27.7372208964      -25.6293374734  IM1H      66              0.0000000000
      1313        66  IM1H      H5            -10.7742745058       27.7710819156      -26.6197247687  IM1H      66              0.0000000000
      1314        66  IM1H      C4            -11.2525626507       27.7787879627      -23.4273452121  IM1H      66              0.0000000000
      1315        66  IM1H      DC4           -11.2533211110       27.7733675254      -23.4386342106  IM1H      66              0.0000000000
      1316        66  IM1H      H6            -10.9740456999       27.8130102041      -22.3740849658  IM1H      66              0.0000000000
      1317        66  IM1H      N2            -10.4219115537       27.7426238809      -24.4898127232  IM1H      66              0.0000000000
      1318        66  IM1H      DN2           -10.4122581016       27.7371061509      -24.4952498168  IM1H      66              0.0000000000
      1319        66  IM1H      H7             -9.4243262417       27.7989596975      -24.4491947345  IM1H      66              0.0000000000
      1320        66  IM1H      LPN21         -10.1223170066       27.7345334954      -24.4764840694  IM1H      66              0.0000000000
      1321        67  IM1H      C1             20.3528966188       -4.5454925342      -24.5016750855  IM1H      67              0.0000000000
      1322        67  IM1H      DC1            20.3444213110       -4.5154070464      -24.4744140058  IM1H      67              0.0000000000
      1323        67  IM1H      H1             21.4523758832       -4.4060367836      -24.4240964685  IM1H      67              0.0000000000
      1324        67  IM1H      H2             19.9742512401       -4.1435207485      -25.4657120976  IM1H      67              0.0000000000
      1325        67  IM1H      H3             20.1298600965       -5.6329433718      -24.4566596664  IM1H      67              0.0000000000
      1326        67  IM1H      N1             19.6960400342       -3.8547244466      -23.3967085228  IM1H      67              0.0000000000
      1327        67  IM1H      DN1            19.6851702592       -3.8424377863      -23.3754550401  IM1H      67              0.0000000000
      1328        67  IM1H      C2             19.7940654424       -2.5180777152      -23.1109903679  IM1H      67              0.0000000000
      1329        67  IM1H      DC2            19.7883757948       -2.5341118270      -23.1039773116  IM1H      67              0.0000000000
      1330        67  IM1H      H4             20.3851959461       -1.8625857305      -23.7385124675  IM1H      67              0.0000000000
      1331        67  IM1H      C3             19.0527697690       -2.2727797347      -21.9846468621  IM1H      67              0.0000000000
      1332        67  IM1H      DC3            19.0528619524       -2.2681228677      -21.9819975048  IM1H      67              0.0000000000
      1333        67  IM1H      H5             18.8628810895       -1.3590044924      -21.4352416421  IM1H      67              0.0000000000
      1334        67  IM1H      C4             18.9077373143       -4.4083932046      -22.4729454309  IM1H      67              0.0000000000
      1335        67  IM1H      DC4            18.9174885199       -4.4078550109      -22.4817148786  IM1H      67              0.0000000000
      1336        67  IM1H      H6             18.6632351175       -5.4699671539      -22.4358048073  IM1H      67              0.0000000000
      1337        67  IM1H      N2             18.4981438113       -3.4648342174      -21.6009437354  IM1H      67              0.0000000000
      1338        67  IM1H      DN2            18.4997018863       -3.4626735558      -21.6142643301  IM1H      67              0.0000000000
      1339        67  IM1H      H7             17.9602815011       -3.6062374263      -20.7698545297  IM1H      67              0.0000000000
      1340        67  IM1H      LPN21          18.3176408083       -3.5114029057      -21.3658905007  IM1H      67              0.0000000000
      1341        68  IM1H      C1            -22.2002400162       -7.6087612735        9.0942598024  IM1H      68              0.0000000000
      1342        68  IM1H      DC1           -22.2318744747       -7.6443571888        9.0930404194  IM1H      68              0.0000000000
      1343        68  IM1H      H1            -21.7467493828       -7.3462418444        8.1145910853  IM1H      68              0.0000000000
      1344        68  IM1H      H2            -21.4776062863       -7.3183745077        9.8865962326  IM1H      68              0.0000000000
      1345        68  IM1H      H3            -23.1518314971       -7.0527693438        9.2345011261  IM1H      68              0.0000000000
      1346        68  IM1H      N1            -22.4250013454       -9.0606720001        9.1512505105  IM1H      68              0.0000000000
      1347        68  IM1H      DN1           -22.4312613603       -9.0945949574        9.1489318137  IM1H      68              0.0000000000
      1348        68  IM1H      C2            -21.4549446648      -10.0184453176        9.0129580434  IM1H      68              0.0000000000
      1349        68  IM1H      DC2           -21.4722539579      -10.0334326970        9.0146378448  IM1H      68              0.0000000000
      1350        68  IM1H      H4            -20.4444051958       -9.6862593384        8.8096074671  IM1H      68              0.0000000000
      1351        68  IM1H      C3            -22.0336040896      -11.2485437309        9.2355234086  IM1H      68              0.0000000000
      1352        68  IM1H      DC3           -22.0201440616      -11.2619065873        9.2361359049  IM1H      68              0.0000000000
      1353        68  IM1H      H5            -21.6398434830      -12.2574248963        9.2349062161  IM1H      68              0.0000000000
      1354        68  IM1H      C4            -23.5605895137       -9.6914593638        9.4776988531  IM1H      68              0.0000000000
      1355        68  IM1H      DC4           -23.5471304321       -9.6820334001        9.4678305231  IM1H      68              0.0000000000
      1356        68  IM1H      H6            -24.5130789403       -9.1982086072        9.6715224414  IM1H      68              0.0000000000
      1357        68  IM1H      N2            -23.3595322238      -11.0270898771        9.5197226823  IM1H      68              0.0000000000
      1358        68  IM1H      DN2           -23.3445064035      -11.0203005135        9.5095197394  IM1H      68              0.0000000000
      1359        68  IM1H      H7            -24.0377392082      -11.7124554997        9.7848815962  IM1H      68              0.0000000000
      1360        68  IM1H      LPN21         -23.5683255393      -11.2338249321        9.5802699240  IM1H      68              0.0000000000
      1361        69  IM1H      C1              1.2077102690       24.2900071482       33.9393179626  IM1H      69              0.0000000000
      1362        69  IM1H      DC1             1.1876748883       24.3069702935       33.9311367258  IM1H      69              0.0000000000
      1363        69  IM1H      H1              1.8289647166       24.5989680007       34.8070201609  IM1H      69              0.0000000000
      1364        69  IM1H      H2              1.7634493990       24.5071953881       33.0021390638  IM1H      69              0.0000000000
      1365        69  IM1H      H3              1.0188544611       23.1999067674       34.0409823300  IM1H      69              0.0000000000
      1366        69  IM1H      N1             -0.0759014299       25.0211648705       33.9261073047  IM1H      69              0.0000000000
      1367        69  IM1H      DN1            -0.0914750909       25.0343440846       33.9255831519  IM1H      69              0.0000000000
      1368        69  IM1H      C2             -0.2644015146       26.3830790672       33.9041788158  IM1H      69              0.0000000000
      1369        69  IM1H      DC2            -0.2649409804       26.3731093246       33.8923366227  IM1H      69              0.0000000000
      1370        69  IM1H      H4              0.5926939812       27.0446129324       33.8786983107  IM1H      69              0.0000000000
      1371        69  IM1H      C3             -1.6018133455       26.6422510618       34.0728672699  IM1H      69              0.0000000000
      1372        69  IM1H      DC3            -1.5912448285       26.6449781710       34.0685326252  IM1H      69              0.0000000000
      1373        69  IM1H      H5             -2.1800895460       27.5558732212       34.1343504856  IM1H      69              0.0000000000
      1374        69  IM1H      C4             -1.2796434295       24.4693267812       34.0525565990  IM1H      69              0.0000000000
      1375        69  IM1H      DC4            -1.2565160737       24.4699539250       34.0409072009  IM1H      69              0.0000000000
      1376        69  IM1H      H6             -1.4559143692       23.3991816541       34.1612670526  IM1H      69              0.0000000000
      1377        69  IM1H      N2             -2.2220833797       25.4286908533       34.1609335124  IM1H      69              0.0000000000
      1378        69  IM1H      DN2            -2.2061413885       25.4277266279       34.1588108739  IM1H      69              0.0000000000
      1379        69  IM1H      H7             -3.2063543086       25.2916342674       34.2724065169  IM1H      69              0.0000000000
      1380        69  IM1H      LPN21          -2.5159298983       25.3808396562       34.1978724682  IM1H      69              0.0000000000
      1381        70  IM1H      C1            -23.8890471162       18.2090661749       -0.9089261789  IM1H      70              0.0000000000
      1382        70  IM1H      DC1           -23.8854318687       18.2185385579       -0.8752205102  IM1H      70              0.0000000000
      1383        70  IM1H      H1            -23.4834766125       19.2375269605       -1.0189351760  IM1H      70              0.0000000000
      1384        70  IM1H      H2            -24.9504662765       18.1974397607       -1.2369127528  IM1H      70              0.0000000000
      1385        70  IM1H      H3            -23.3146959221       17.4992734174       -1.5418842728  IM1H      70              0.0000000000
      1386        70  IM1H      N1            -23.8065316577       17.7935430242        0.4948470742  IM1H      70              0.0000000000
      1387        70  IM1H      DN1           -23.8074541686       17.7894188877        0.5196840140  IM1H      70              0.0000000000
      1388        70  IM1H      C2            -24.4244804683       18.4022241262        1.5575773954  IM1H      70              0.0000000000
      1389        70  IM1H      DC2           -24.4237299287       18.3897460839        1.5514490020  IM1H      70              0.0000000000
      1390        70  IM1H      H4            -25.0145224919       19.2973414459        1.4042659661  IM1H      70              0.0000000000
      1391        70  IM1H      C3            -24.1067191602       17.6974496197        2.6926399939  IM1H      70              0.0000000000
      1392        70  IM1H      DC3           -24.1183226129       17.7003252560        2.6970596486  IM1H      70              0.0000000000
      1393        70  IM1H      H5            -24.3604414258       17.8538538531        3.7338180419  IM1H      70              0.0000000000
      1394        70  IM1H      C4            -23.1248719347       16.7467827944        0.9710270789  IM1H      70              0.0000000000
      1395        70  IM1H      DC4           -23.1341230512       16.7615951771        0.9681304115  IM1H      70              0.0000000000
      1396        70  IM1H      H6            -22.5114155987       16.0929974405        0.3510786647  IM1H      70              0.0000000000
      1397        70  IM1H      N2            -23.2979503473       16.6569759073        2.3055476593  IM1H      70              0.0000000000
      1398        70  IM1H      DN2           -23.3027053212       16.6601473093        2.3056737698  IM1H      70              0.0000000000
      1399        70  IM1H      H7            -22.8699458552       15.9873717881        2.9125422873  IM1H      70              0.0000000000
      1400        70  IM1H      LPN21         -23.1791811897       16.4458189598        2.4824844579  IM1H      70              0.0000000000
      1401        71  IM1H      C1             23.3169554312        5.5752060193      -27.2943883966  IM1H      71              0.0000000000
      1402        71  IM1H      DC1            23.3305829001        5.5640582670      -27.2956913469  IM1H      71              0.0000000000
      1403        71  IM1H      H1             23.9125581661        6.5126777226      -27.2674590714  IM1H      71              0.0000000000
      1404        71  IM1H      H2             22.7488559218        5.4544867738      -26.3472818487  IM1H      71              0.0000000000
      1405        71  IM1H      H3             22.6151851223        5.5972302631      -28.1554077728  IM1H      71              0.0000000000
      1406        71  IM1H      N1             24.2340040512        4.4488790444      -27.4495377771  IM1H      71              0.0000000000
      1407        71  IM1H      DN1            24.2459297608        4.4380969796      -27.4526124443  IM1H      71              0.0000000000
      1408        71  IM1H      C2             25.2475488363        4.1050275211      -26.5945403819  IM1H      71              0.0000000000
      1409        71  IM1H      DC2            25.2446910274        4.1131503335      -26.6184453254  IM1H      71              0.0000000000
      1410        71  IM1H      H4             25.4032801001        4.6560488350      -25.6752948842  IM1H      71              0.0000000000
      1411        71  IM1H      C3             25.8819958884        3.0024939528      -27.1110846620  IM1H      71              0.0000000000
      1412        71  IM1H      DC3            25.8940741598        3.0108018890      -27.1219610047  IM1H      71              0.0000000000
      1413        71  IM1H      H5             26.6932108571        2.4005933931      -26.7205273795  IM1H      71              0.0000000000
      1414        71  IM1H      C4             24.2496105089        3.5783538906      -28.4597561165  IM1H      71              0.0000000000
      1415        71  IM1H      DC4            24.2488106265        3.5918279486      -28.4425487705  IM1H      71              0.0000000000
      1416        71  IM1H      H6             23.5701399462        3.5991164832      -29.3118058035  IM1H      71              0.0000000000
      1417        71  IM1H      N2             25.2374830023        2.6799073221      -28.2774040065  IM1H      71              0.0000000000
      1418        71  IM1H      DN2            25.2370932173        2.6779628858      -28.2728237025  IM1H      71              0.0000000000
      1419        71  IM1H      H7             25.4654794472        1.9446367353      -28.9156788575  IM1H      71              0.0000000000
      1420        71  IM1H      LPN21          25.3016109436        2.4517348715      -28.4613195848  IM1H      71              0.0000000000
      1421        72  IM1H      C1            -28.6848416509       -3.0137482267       29.0007589989  IM1H      72              0.0000000000
      1422        72  IM1H      DC1           -28.6654762759       -3.0161543651       28.9946826880  IM1H      72              0.0000000000
      1423        72  IM1H      H1            -28.8851753135       -2.2247338711       28.2446877253  IM1H      72              0.0000000000
      1424        72  IM1H      H2            -28.9008132090       -2.6110672933       30.0134412551  IM1H      72              0.0000000000
      1425        72  IM1H      H3            -29.3240180650       -3.8994743997       28.7976244141  IM1H      72              0.0000000000
      1426        72  IM1H      N1            -27.2792212158       -3.4081721130       28.9228777598  IM1H      72              0.0000000000
      1427        72  IM1H      DN1           -27.2669816587       -3.4111794750       28.9205000779  IM1H      72              0.0000000000
      1428        72  IM1H      C2            -26.2114101098       -2.5638631304       29.0399515121  IM1H      72              0.0000000000
      1429        72  IM1H      DC2           -26.2313813745       -2.5658040760       29.0351897286  IM1H      72              0.0000000000
      1430        72  IM1H      H4            -26.3781438294       -1.5178094107       29.2654741989  IM1H      72              0.0000000000
      1431        72  IM1H      C3            -25.0601590017       -3.3137858497       28.9713453669  IM1H      72              0.0000000000
      1432        72  IM1H      DC3           -25.0806012991       -3.3043363702       28.9673286512  IM1H      72              0.0000000000
      1433        72  IM1H      H5            -24.0136830983       -3.0521873621       29.0680067073  IM1H      72              0.0000000000
      1434        72  IM1H      C4            -26.7957238915       -4.6444375551       28.7704308701  IM1H      72              0.0000000000
      1435        72  IM1H      DC4           -26.8229293130       -4.6294155693       28.7613185076  IM1H      72              0.0000000000
      1436        72  IM1H      H6            -27.4151009219       -5.5354437986       28.6675718973  IM1H      72              0.0000000000
      1437        72  IM1H      N2            -25.4459173200       -4.6163323006       28.7866864478  IM1H      72              0.0000000000
      1438        72  IM1H      DN2           -25.4637763703       -4.6076761665       28.7742231643  IM1H      72              0.0000000000
      1439        72  IM1H      H7            -24.8313599370       -5.4049951717       28.8048550655  IM1H      72              0.0000000000
      1440        72  IM1H      LPN21         -25.2659701159       -4.8543032316       28.7552406263  IM1H      72              0.0000000000
      1441        73  IM1H      C1              4.3296716864      -20.9671222659      -29.7668114260  IM1H      73              0.0000000000
      1442        73  IM1H      DC1             4.3290136581      -20.9638373978      -29.7754578970  IM1H      73              0.0000000000
      1443        73  IM1H      H1              4.1924698058      -21.6890226161      -28.9335308439  IM1H      73              0.0000000000
      1444        73  IM1H      H2              4.8376218932      -21.4622874977      -30.6218663847  IM1H      73              0.0000000000
      1445        73  IM1H      H3              3.3444572045      -20.5629936917      -30.0835976646  IM1H      73              0.0000000000
      1446        73  IM1H      N1              5.1763795830      -19.8699548567      -29.2825608289  IM1H      73              0.0000000000
      1447        73  IM1H      DN1             5.1787502012      -19.8690774412      -29.2864206065  IM1H      73              0.0000000000
      1448        73  IM1H      C2              6.4525907309      -19.9931819424      -28.7957256264  IM1H      73              0.0000000000
      1449        73  IM1H      DC2             6.4306969483      -19.9883616469      -28.8144083851  IM1H      73              0.0000000000
      1450        73  IM1H      H4              6.9318646883      -20.9621293458      -28.7299502270  IM1H      73              0.0000000000
      1451        73  IM1H      C3              6.8943539254      -18.7406180022      -28.4386369615  IM1H      73              0.0000000000
      1452        73  IM1H      DC3             6.8895730533      -18.7509626286      -28.4486503622  IM1H      73              0.0000000000
      1453        73  IM1H      H5              7.8367759099      -18.3914468658      -28.0351405914  IM1H      73              0.0000000000
      1454        73  IM1H      C4              4.8540643730      -18.5738335712      -29.2245773704  IM1H      73              0.0000000000
      1455        73  IM1H      DC4             4.8483559215      -18.6102185117      -29.2257193711  IM1H      73              0.0000000000
      1456        73  IM1H      H6              3.9180048318      -18.1408891973      -29.5773545020  IM1H      73              0.0000000000
      1457        73  IM1H      N2              5.8769260885      -17.8619629303      -28.7108583902  IM1H      73              0.0000000000
      1458        73  IM1H      DN2             5.8710384164      -17.8738545463      -28.7186177064  IM1H      73              0.0000000000
      1459        73  IM1H      H7              5.8935964699      -16.8748105259      -28.5519488910  IM1H      73              0.0000000000
      1460        73  IM1H      LPN21           5.8778906636      -17.5653610039      -28.6658432052  IM1H      73              0.0000000000
      1461        74  IM1H      C1            -29.9489366676       19.6641643800        6.4968744875  IM1H      74              0.0000000000
      1462        74  IM1H      DC1           -29.9345577604       19.6713330493        6.5031952161  IM1H      74              0.0000000000
      1463        74  IM1H      H1            -29.1811864030       20.3248280647        6.9533873870  IM1H      74              0.0000000000
      1464        74  IM1H      H2            -30.4511799851       20.2129104732        5.6716773140  IM1H      74              0.0000000000
      1465        74  IM1H      H3            -29.4799181348       18.7385847841        6.0998291137  IM1H      74              0.0000000000
      1466        74  IM1H      N1            -30.9612437596       19.2959528749        7.5005440057  IM1H      74              0.0000000000
      1467        74  IM1H      DN1           -30.9567429374       19.3092745697        7.4966668400  IM1H      74              0.0000000000
      1468        74  IM1H      C2            -31.7611989062       20.1768300122        8.1822593844  IM1H      74              0.0000000000
      1469        74  IM1H      DC2           -31.7393578392       20.1826787489        8.1631963463  IM1H      74              0.0000000000
      1470        74  IM1H      H4            -31.6807534680       21.2424133719        8.0063343014  IM1H      74              0.0000000000
      1471        74  IM1H      C3            -32.6119353419       19.4501401846        8.9837151119  IM1H      74              0.0000000000
      1472        74  IM1H      DC3           -32.5974051484       19.4758308657        8.9714444740  IM1H      74              0.0000000000
      1473        74  IM1H      H5            -33.3978447009       19.7364555937        9.6716533111  IM1H      74              0.0000000000
      1474        74  IM1H      C4            -31.3236758003       18.0594583550        7.8735696484  IM1H      74              0.0000000000
      1475        74  IM1H      DC4           -31.2939519873       18.1032996230        7.8513786484  IM1H      74              0.0000000000
      1476        74  IM1H      H6            -30.8852124491       17.1318592589        7.5055889334  IM1H      74              0.0000000000
      1477        74  IM1H      N2            -32.3277554807       18.1196725459        8.7803575665  IM1H      74              0.0000000000
      1478        74  IM1H      DN2           -32.3002772138       18.1485959585        8.7663915749  IM1H      74              0.0000000000
      1479        74  IM1H      H7            -32.8465865275       17.3465558822        9.1451931035  IM1H      74              0.0000000000
      1480        74  IM1H      LPN21         -32.4609829825       17.8845071041        8.9105406980  IM1H      74              0.0000000000
      1481        75  IM1H      C1             36.5344945521      -22.2464358311       -6.4033816346  IM1H      75              0.0000000000
      1482        75  IM1H      DC1            36.5204973346      -22.2455237549       -6.4064439741  IM1H      75              0.0000000000
      1483        75  IM1H      H1             36.3266978849      -21.5415097953       -5.5701824813  IM1H      75              0.0000000000
      1484        75  IM1H      H2             36.6961328407      -21.7113063912       -7.3635017041  IM1H      75              0.0000000000
      1485        75  IM1H      H3             37.4302410666      -22.8610648872       -6.1705935212  IM1H      75              0.0000000000
      1486        75  IM1H      N1             35.3782820624      -23.0950865510       -6.5964406381  IM1H      75              0.0000000000
      1487        75  IM1H      DN1            35.3670148499      -23.0944767110       -6.5988706528  IM1H      75              0.0000000000
      1488        75  IM1H      C2             34.1123553541      -22.6636731094       -6.8825460259  IM1H      75              0.0000000000
      1489        75  IM1H      DC2            34.1291395379      -22.6561626071       -6.8842869169  IM1H      75              0.0000000000
      1490        75  IM1H      H4             33.8934521235      -21.6034192744       -6.9113935728  IM1H      75              0.0000000000
      1491        75  IM1H      C3             33.3282283585      -23.7754007973       -7.0755270873  IM1H      75              0.0000000000
      1492        75  IM1H      DC3            33.3320122460      -23.7581038281       -7.0776938926  IM1H      75              0.0000000000
      1493        75  IM1H      H5             32.2770934381      -23.8868155064       -7.3113048254  IM1H      75              0.0000000000
      1494        75  IM1H      C4             35.3767848961      -24.4276110666       -6.6225678038  IM1H      75              0.0000000000
      1495        75  IM1H      DC4            35.3878973999      -24.3932831613       -6.6206102202  IM1H      75              0.0000000000
      1496        75  IM1H      H6             36.2573551784      -25.0446247187       -6.4437099524  IM1H      75              0.0000000000
      1497        75  IM1H      N2             34.1371581024      -24.8767373532       -6.9077272257  IM1H      75              0.0000000000
      1498        75  IM1H      DN2            34.1447802822      -24.8564803987       -6.9068365213  IM1H      75              0.0000000000
      1499        75  IM1H      H7             33.8701665991      -25.8370134678       -6.9888772161  IM1H      75              0.0000000000
      1500        75  IM1H      LPN21          34.0571245380      -25.1650408799       -6.9295378895  IM1H      75              0.0000000000
      1501        76  IM1H      C1              4.1183282824       32.4344981620      -20.7912908999  IM1H      76              0.0000000000
      1502        76  IM1H      DC1             4.1194589520       32.4372567330      -20.8029217445  IM1H      76              0.0000000000
      1503        76  IM1H      H1              4.0364085976       31.7792767188      -19.8978173259  IM1H      76              0.0000000000
      1504        76  IM1H      H2              3.6724378110       33.4297949971      -20.5794256169  IM1H      76              0.0000000000
      1505        76  IM1H      H3              5.1804331780       32.5527050611      -21.0950693056  IM1H      76              0.0000000000
      1506        76  IM1H      N1              3.3930711245       31.8187318795      -21.8991730983  IM1H      76              0.0000000000
      1507        76  IM1H      DN1             3.3954578265       31.8160295127      -21.9088140120  IM1H      76              0.0000000000
      1508        76  IM1H      C2              2.0469379109       31.5922387810      -21.9268217161  IM1H      76              0.0000000000
      1509        76  IM1H      DC2             2.0799731758       31.6012767676      -21.9340069963  IM1H      76              0.0000000000
      1510        76  IM1H      H4              1.4204936672       31.8176715919      -21.0726339982  IM1H      76              0.0000000000
      1511        76  IM1H      C3              1.7369654879       31.0386177868      -23.1436758680  IM1H      76              0.0000000000
      1512        76  IM1H      DC3             1.7512420987       31.0524293551      -23.1575938788  IM1H      76              0.0000000000
      1513        76  IM1H      H5              0.7838544881       30.6803765430      -23.5126360736  IM1H      76              0.0000000000
      1514        76  IM1H      C4              3.8963200532       31.4093414355      -23.0716217199  IM1H      76              0.0000000000
      1515        76  IM1H      DC4             3.8897779269       31.4273986255      -23.0582740233  IM1H      76              0.0000000000
      1516        76  IM1H      H6              4.9558974753       31.4220992539      -23.3270290898  IM1H      76              0.0000000000
      1517        76  IM1H      N2              2.9075214756       30.9245441249      -23.8517861506  IM1H      76              0.0000000000
      1518        76  IM1H      DN2             2.9148904598       30.9265505366      -23.8559115470  IM1H      76              0.0000000000
      1519        76  IM1H      H7              3.0047833428       30.5318534232      -24.7662992134  IM1H      76              0.0000000000
      1520        76  IM1H      LPN21           2.9413461788       30.8132742209      -24.1283271022  IM1H      76              0.0000000000
      1521        77  IM1H      C1            -18.0107655759       25.1415254278       33.6148688248  IM1H      77              0.0000000000
      1522        77  IM1H      DC1           -18.0025390753       25.1322468063       33.6141061014  IM1H      77              0.0000000000
      1523        77  IM1H      H1            -17.1405039517       25.8303854310       33.6642409195  IM1H      77              0.0000000000
      1524        77  IM1H      H2            -18.3000230136       24.8006023526       34.6319345023  IM1H      77              0.0000000000
      1525        77  IM1H      H3            -18.8745356932       25.6542934630       33.1402204007  IM1H      77              0.0000000000
      1526        77  IM1H      N1            -17.6526684471       23.9753061372       32.8051726204  IM1H      77              0.0000000000
      1527        77  IM1H      DN1           -17.6507312150       23.9673304111       32.8008831449  IM1H      77              0.0000000000
      1528        77  IM1H      C2            -16.6653361213       23.0746247745       33.0979868800  IM1H      77              0.0000000000
      1529        77  IM1H      DC2           -16.6870923263       23.0863181191       33.0917757518  IM1H      77              0.0000000000
      1530        77  IM1H      H4            -16.0440203269       23.1909138165       33.9773801608  IM1H      77              0.0000000000
      1531        77  IM1H      C3            -16.6295236553       22.1316569844       32.1045934945  IM1H      77              0.0000000000
      1532        77  IM1H      DC3           -16.6422390910       22.1226718617       32.1134268784  IM1H      77              0.0000000000
      1533        77  IM1H      H5            -15.9652186177       21.2900902662       31.9517757081  IM1H      77              0.0000000000
      1534        77  IM1H      C4            -18.2070494530       23.5938463428       31.6509706026  IM1H      77              0.0000000000
      1535        77  IM1H      DC4           -18.1929842509       23.6030484426       31.6719147061  IM1H      77              0.0000000000
      1536        77  IM1H      H6            -19.0284054490       24.1104943961       31.1544334773  IM1H      77              0.0000000000
      1537        77  IM1H      N2            -17.6038527965       22.4722810931       31.2038255184  IM1H      77              0.0000000000
      1538        77  IM1H      DN2           -17.6063518517       22.4681143588       31.2052503278  IM1H      77              0.0000000000
      1539        77  IM1H      H7            -17.8122452200       22.0144344993       30.3395633508  IM1H      77              0.0000000000
      1540        77  IM1H      LPN21         -17.6734167499       22.3260177556       30.9513024650  IM1H      77              0.0000000000
      1541        78  IM1H      C1             29.7202564818       15.0020165363       27.8639339715  IM1H      78              0.0000000000
      1542        78  IM1H      DC1            29.7202468321       15.0036175770       27.8618936673  IM1H      78              0.0000000000
      1543        78  IM1H      H1             29.9073063155       14.0163863851       28.3412876829  IM1H      78              0.0000000000
      1544        78  IM1H      H2             30.6833348725       15.5054272208       27.6328956677  IM1H      78              0.0000000000
      1545        78  IM1H      H3             29.1179445842       14.8633787002       26.9407216837  IM1H      78              0.0000000000
      1546        78  IM1H      N1             29.0021583187       15.8628518973       28.8042752651  IM1H      78              0.0000000000
      1547        78  IM1H      DN1            28.9962650880       15.8552712610       28.7999338436  IM1H      78              0.0000000000
      1548        78  IM1H      C2             29.4434174559       16.2250477596       30.0471283619  IM1H      78              0.0000000000
      1549        78  IM1H      DC2            29.4307937664       16.2095448496       30.0098100688  IM1H      78              0.0000000000
      1550        78  IM1H      H4             30.3948290653       15.8831839548       30.4355020073  IM1H      78              0.0000000000
      1551        78  IM1H      C3             28.4923025224       17.0334328011       30.6185000911  IM1H      78              0.0000000000
      1552        78  IM1H      DC3            28.4980454645       17.0174022739       30.6002291761  IM1H      78              0.0000000000
      1553        78  IM1H      H5             28.4338382530       17.5200695683       31.5842410439  IM1H      78              0.0000000000
      1554        78  IM1H      C4             27.8116875650       16.4437871151       28.6180416004  IM1H      78              0.0000000000
      1555        78  IM1H      DC4            27.8352018854       16.4252779524       28.6043382037  IM1H      78              0.0000000000
      1556        78  IM1H      H6             27.1858406912       16.2919255174       27.7386362634  IM1H      78              0.0000000000
      1557        78  IM1H      N2             27.4758488917       17.1617122128       29.7093973519  IM1H      78              0.0000000000
      1558        78  IM1H      DN2            27.4788181812       17.1475345468       29.6920986377  IM1H      78              0.0000000000
      1559        78  IM1H      H7             26.6487092520       17.7009267391       29.8677883602  IM1H      78              0.0000000000
      1560        78  IM1H      LPN21          27.2231639506       17.3198070033       29.7434026128  IM1H      78              0.0000000000
      1561        79  IM1H      C1             12.8438506774      -30.0681176535       -4.5843750411  IM1H      79              0.0000000000
      1562        79  IM1H      DC1            12.8613813621      -30.0480079364       -4.6043322996  IM1H      79              0.0000000000
      1563        79  IM1H      H1             13.5889370804      -29.9100759722       -3.7755548636  IM1H      79              0.0000000000
      1564        79  IM1H      H2             13.2145001614      -30.7996534255       -5.3339051435  IM1H      79              0.0000000000
      1565        79  IM1H      H3             11.9013855168      -30.4480754151       -4.1352508693  IM1H      79              0.0000000000
      1566        79  IM1H      N1             12.5909521113      -28.7942638409       -5.2556642179  IM1H      79              0.0000000000
      1567        79  IM1H      DN1            12.6048660142      -28.7768848902       -5.2674944278  IM1H      79              0.0000000000
      1568        79  IM1H      C2             13.5078537308      -28.0239576983       -5.9301090501  IM1H      79              0.0000000000
      1569        79  IM1H      DC2            13.5093187129      -28.0213723055       -5.9264172832  IM1H      79              0.0000000000
      1570        79  IM1H      H4             14.5333885285      -28.3593252425       -6.0233613368  IM1H      79              0.0000000000
      1571        79  IM1H      C3             12.8641593567      -26.8969969614       -6.3843567153  IM1H      79              0.0000000000
      1572        79  IM1H      DC3            12.8793014847      -26.8881449806       -6.3986235744  IM1H      79              0.0000000000
      1573        79  IM1H      H5             13.2207655138      -26.0297855575       -6.9262657774  IM1H      79              0.0000000000
      1574        79  IM1H      C4             11.4203641434      -28.1575466756       -5.3010852276  IM1H      79              0.0000000000
      1575        79  IM1H      DC4            11.4704159422      -28.1666896912       -5.3215658532  IM1H      79              0.0000000000
      1576        79  IM1H      H6             10.4958403395      -28.4848068258       -4.8254209236  IM1H      79              0.0000000000
      1577        79  IM1H      N2             11.5532555599      -27.0066158718       -5.9891610701  IM1H      79              0.0000000000
      1578        79  IM1H      DN2            11.5734626030      -27.0004958845       -6.0063339216  IM1H      79              0.0000000000
      1579        79  IM1H      H7             10.7965244499      -26.3578495016       -6.0695365889  IM1H      79              0.0000000000
      1580        79  IM1H      LPN21          11.3322506723      -26.8113174792       -6.0440735230  IM1H      79              0.0000000000
      1581        80  IM1H      C1             -3.4506870723       16.8630239732       33.9135524831  IM1H      80              0.0000000000
      1582        80  IM1H      DC1            -3.4648789509       16.8733741171       33.9097068015  IM1H      80              0.0000000000
      1583        80  IM1H      H1             -3.2649790564       17.9350914471       34.1382853588  IM1H      80              0.0000000000
      1584        80  IM1H      H2             -3.1037583204       16.6098702988       32.8889185688  IM1H      80              0.0000000000
      1585        80  IM1H      H3             -2.9201484891       16.2271890530       34.6542033915  IM1H      80              0.0000000000
      1586        80  IM1H      N1             -4.8922211102       16.6022885295       34.0098601148  IM1H      80              0.0000000000
      1587        80  IM1H      DN1            -4.9089332448       16.6080488803       34.0046236589  IM1H      80              0.0000000000
      1588        80  IM1H      C2             -5.8720118483       17.1949656517       33.2543937417  IM1H      80              0.0000000000
      1589        80  IM1H      DC2            -5.8684280810       17.1951775769       33.2595085038  IM1H      80              0.0000000000
      1590        80  IM1H      H4             -5.6001410565       17.9143516626       32.4918591262  IM1H      80              0.0000000000
      1591        80  IM1H      C3             -7.0843052283       16.6744055895       33.6420033853  IM1H      80              0.0000000000
      1592        80  IM1H      DC3            -7.0927480409       16.6882239352       33.6372380212  IM1H      80              0.0000000000
      1593        80  IM1H      H5             -8.0889681709       16.8456904798       33.2756663027  IM1H      80              0.0000000000
      1594        80  IM1H      C4             -5.4919680678       15.7393502511       34.8369005364  IM1H      80              0.0000000000
      1595        80  IM1H      DC4            -5.4866475626       15.7673272841       34.8169175789  IM1H      80              0.0000000000
      1596        80  IM1H      H6             -4.9680925491       15.0999141967       35.5473764143  IM1H      80              0.0000000000
      1597        80  IM1H      N2             -6.8275760314       15.7636345799       34.6406895830  IM1H      80              0.0000000000
      1598        80  IM1H      DN2            -6.8305156666       15.7769955594       34.6324174807  IM1H      80              0.0000000000
      1599        80  IM1H      H7             -7.4777471969       15.1666117902       35.1106270726  IM1H      80              0.0000000000
      1600        80  IM1H      LPN21          -7.0285046657       15.5984833117       34.7901979189  IM1H      80              0.0000000000
      1601        81  IM1H      C1             28.5996525954      -35.1632051902      -24.5348209264  IM1H      81              0.0000000000
      1602        81  IM1H      DC1            28.6032736557      -35.1807393941      -24.5061573891  IM1H      81              0.0000000000
      1603        81  IM1H      H1             28.3225171007      -34.0955139322      -24.4023358496  IM1H      81              0.0000000000
      1604        81  IM1H      H2             27.7040201123      -35.7549045701      -24.8212738876  IM1H      81              0.0000000000
      1605        81  IM1H      H3             29.3699476693      -35.2414368015      -25.3315933627  IM1H      81              0.0000000000
      1606        81  IM1H      N1             29.1389655894      -35.6647672725      -23.2676155230  IM1H      81              0.0000000000
      1607        81  IM1H      DN1            29.1467328719      -35.6745663416      -23.2489504850  IM1H      81              0.0000000000
      1608        81  IM1H      C2             28.4713457668      -35.6929392953      -22.0727106118  IM1H      81              0.0000000000
      1609        81  IM1H      DC2            28.4737212098      -35.6910820777      -22.0882685696  IM1H      81              0.0000000000
      1610        81  IM1H      H4             27.4315566698      -35.3938590558      -22.0249754658  IM1H      81              0.0000000000
      1611        81  IM1H      C3             29.3165941300      -36.2107932910      -21.1209172595  IM1H      81              0.0000000000
      1612        81  IM1H      DC3            29.3139336907      -36.2068569528      -21.1297494789  IM1H      81              0.0000000000
      1613        81  IM1H      H5             29.1500864815      -36.4833495321      -20.0860852449  IM1H      81              0.0000000000
      1614        81  IM1H      C4             30.3503389368      -36.1887213647      -23.0555516366  IM1H      81              0.0000000000
      1615        81  IM1H      DC4            30.3351508717      -36.1866817156      -23.0653798999  IM1H      81              0.0000000000
      1616        81  IM1H      H6             31.0976565487      -36.3266030175      -23.8369638433  IM1H      81              0.0000000000
      1617        81  IM1H      N2             30.4973210594      -36.5065776369      -21.7468342780  IM1H      81              0.0000000000
      1618        81  IM1H      DN2            30.4944581689      -36.4997721190      -21.7560026915  IM1H      81              0.0000000000
      1619        81  IM1H      H7             31.2424164213      -37.0370146997      -21.3425207561  IM1H      81              0.0000000000
      1620        81  IM1H      LPN21          30.7441035620      -36.6206236611      -21.6199804221  IM1H      81              0.0000000000
      1621        82  IM1H      C1            -25.3249518166        4.2952070347        4.8905545818  IM1H      82              0.0000000000
      1622        82  IM1H      DC1           -25.3426352084        4.2761541725        4.8514198645  IM1H      82              0.0000000000
      1623        82  IM1H      H1            -24.2463064563        4.0713006880        4.7466409515  IM1H      82              0.0000000000
      1624        82  IM1H      H2            -25.6003806987        4.1186382105        5.9522906034  IM1H      82              0.0000000000
      1625        82  IM1H      H3            -25.5358424660        5.3553810429        4.6338890325  IM1H      82              0.0000000000
      1626        82  IM1H      N1            -26.1232984285        3.3957425738        4.0650166486  IM1H      82              0.0000000000
      1627        82  IM1H      DN1           -26.1426263260        3.3842784639        4.0361581702  IM1H      82              0.0000000000
      1628        82  IM1H      C2            -26.1833342019        2.0374652033        4.2048163537  IM1H      82              0.0000000000
      1629        82  IM1H      DC2           -26.1855979854        2.0572513771        4.1759483514  IM1H      82              0.0000000000
      1630        82  IM1H      H4            -25.6181409781        1.5420992006        4.9845971839  IM1H      82              0.0000000000
      1631        82  IM1H      C3            -27.0257511576        1.5471037451        3.2371042151  IM1H      82              0.0000000000
      1632        82  IM1H      DC3           -27.0318427582        1.5527958208        3.2160622278  IM1H      82              0.0000000000
      1633        82  IM1H      H5            -27.3074031756        0.5250596039        3.0157743390  IM1H      82              0.0000000000
      1634        82  IM1H      C4            -26.9170755535        3.7301062880        3.0444207803  IM1H      82              0.0000000000
      1635        82  IM1H      DC4           -26.9184729024        3.7325180135        3.0354913079  IM1H      82              0.0000000000
      1636        82  IM1H      H6            -27.0970814973        4.7641868606        2.7505241495  IM1H      82              0.0000000000
      1637        82  IM1H      N2            -27.4706286276        2.6205674657        2.5096872525  IM1H      82              0.0000000000
      1638        82  IM1H      DN2           -27.4791119299        2.6242778658        2.4966790609  IM1H      82              0.0000000000
      1639        82  IM1H      H7            -28.1265570199        2.5796152397        1.7559758625  IM1H      82              0.0000000000
      1640        82  IM1H      LPN21         -27.6567011900        2.6138963345        2.2744586455  IM1H      82              0.0000000000
      1641        83  IM1H      C1            -25.8845645037       15.7054629732      -26.7331060089  IM1H      83              0.0000000000
      1642        83  IM1H      DC1           -25.8910201173       15.6991921561      -26.7509421096  IM1H      83              0.0000000000
      1643        83  IM1H      H1            -26.0475232404       16.4774081202      -25.9508872797  IM1H      83              0.0000000000
      1644        83  IM1H      H2            -26.0000951820       16.1637627695      -27.7385586235  IM1H      83              0.0000000000
      1645        83  IM1H      H3            -24.8662385551       15.2773587408      -26.6145310158  IM1H      83              0.0000000000
      1646        83  IM1H      N1            -26.8800638131       14.6338047964      -26.5689219120  IM1H      83              0.0000000000
      1647        83  IM1H      DN1           -26.8920927158       14.6343670009      -26.5782683831  IM1H      83              0.0000000000
      1648        83  IM1H      C2            -28.2384335277       14.7400708814      -26.7452744613  IM1H      83              0.0000000000
      1649        83  IM1H      DC2           -28.2229991230       14.7428538691      -26.7498588568  IM1H      83              0.0000000000
      1650        83  IM1H      H4            -28.6918241352       15.6919572296      -26.9927382709  IM1H      83              0.0000000000
      1651        83  IM1H      C3            -28.8039378311       13.5171423069      -26.4780305488  IM1H      83              0.0000000000
      1652        83  IM1H      DC3           -28.8112252510       13.5207023519      -26.4908942607  IM1H      83              0.0000000000
      1653        83  IM1H      H5            -29.8379588108       13.1959103029      -26.4556785241  IM1H      83              0.0000000000
      1654        83  IM1H      C4            -26.6250890085       13.3711195883      -26.2188638630  IM1H      83              0.0000000000
      1655        83  IM1H      DC4           -26.6263712401       13.3999915094      -26.2670634912  IM1H      83              0.0000000000
      1656        83  IM1H      H6            -25.6500708533       12.9834122963      -25.9236983963  IM1H      83              0.0000000000
      1657        83  IM1H      N2            -27.7737367982       12.6658981753      -26.1706018451  IM1H      83              0.0000000000
      1658        83  IM1H      DN2           -27.7812130492       12.6691333730      -26.2018669623  IM1H      83              0.0000000000
      1659        83  IM1H      H7            -27.8355679285       11.7780943355      -25.7145522279  IM1H      83              0.0000000000
      1660        83  IM1H      LPN21         -27.7958800432       12.3742365726      -26.1039446159  IM1H      83              0.0000000000
      1661        84  IM1H      C1            -22.4166871767      -36.9042960946      -37.0142670043  IM1H      84              0.0000000000
      1662        84  IM1H      DC1           -22.4123139374      -36.8744528831      -37.0341934744  IM1H      84              0.0000000000
      1663        84  IM1H      H1            -23.2483125833      -37.3712522139      -37.5840671153  IM1H      84              0.0000000000
      1664        84  IM1H      H2            -22.4399948830      -37.2590617257      -35.9616896448  IM1H      84              0.0000000000
      1665        84  IM1H      H3            -21.4397291372      -37.1410982963      -37.4873406861  IM1H      84              0.0000000000
      1666        84  IM1H      N1            -22.5811573619      -35.4707429462      -36.9861047241  IM1H      84              0.0000000000
      1667        84  IM1H      DN1           -22.5739941123      -35.4448211648      -36.9950348714  IM1H      84              0.0000000000
      1668        84  IM1H      C2            -23.7189372370      -34.8210757700      -36.6085233631  IM1H      84              0.0000000000
      1669        84  IM1H      DC2           -23.6914724928      -34.8123544804      -36.6347913389  IM1H      84              0.0000000000
      1670        84  IM1H      H4            -24.5604664486      -35.3892784723      -36.2318759483  IM1H      84              0.0000000000
      1671        84  IM1H      C3            -23.4820489335      -33.4730307042      -36.7120667959  IM1H      84              0.0000000000
      1672        84  IM1H      DC3           -23.4749718474      -33.4622976639      -36.7142471688  IM1H      84              0.0000000000
      1673        84  IM1H      H5            -24.1311324995      -32.6317045080      -36.5029023730  IM1H      84              0.0000000000
      1674        84  IM1H      C4            -21.6587212599      -34.5536320998      -37.2882238044  IM1H      84              0.0000000000
      1675        84  IM1H      DC4           -21.6543000294      -34.5622666443      -37.2900150604  IM1H      84              0.0000000000
      1676        84  IM1H      H6            -20.6326067709      -34.7990809633      -37.5619826597  IM1H      84              0.0000000000
      1677        84  IM1H      N2            -22.1841013125      -33.3200375904      -37.1428097936  IM1H      84              0.0000000000
      1678        84  IM1H      DN2           -22.1776906629      -33.3204125234      -37.1383589975  IM1H      84              0.0000000000
      1679        84  IM1H      H7            -21.7292081663      -32.4587524017      -37.3692166161  IM1H      84              0.0000000000
      1680        84  IM1H      LPN21         -22.0403453752      -33.0621313327      -37.1959002141  IM1H      84              0.0000000000
      1681        85  IM1H      C1            -12.0531969140       36.3439425432      -10.4886469176  IM1H      85              0.0000000000
      1682        85  IM1H      DC1           -12.0269136126       36.3481960371      -10.4981046358  IM1H      85              0.0000000000
      1683        85  IM1H      H1            -12.0701228639       37.1662312119      -11.2355577955  IM1H      85              0.0000000000
      1684        85  IM1H      H2            -11.8222997210       36.7293148098       -9.4725289602  IM1H      85              0.0000000000
      1685        85  IM1H      H3            -13.0192931376       35.7955013264      -10.4748151321  IM1H      85              0.0000000000
      1686        85  IM1H      N1            -10.9745352990       35.4609943675      -10.7795347379  IM1H      85              0.0000000000
      1687        85  IM1H      DN1           -10.9540608167       35.4625127637      -10.7873936979  IM1H      85              0.0000000000
      1688        85  IM1H      C2             -9.6622306415       35.7461559512      -11.0493328536  IM1H      85              0.0000000000
      1689        85  IM1H      DC2            -9.6699053901       35.7600222229      -11.0508041533  IM1H      85              0.0000000000
      1690        85  IM1H      H4             -9.2994675788       36.7640341431      -11.1215543654  IM1H      85              0.0000000000
      1691        85  IM1H      C3             -9.0081605763       34.5530192639      -11.1998810377  IM1H      85              0.0000000000
      1692        85  IM1H      DC3            -9.0022618433       34.5759565724      -11.1949627441  IM1H      85              0.0000000000
      1693        85  IM1H      H5             -7.9876295656       34.3032692836      -11.4626174142  IM1H      85              0.0000000000
      1694        85  IM1H      C4            -11.1175338875       34.1488727225      -10.7267368135  IM1H      85              0.0000000000
      1695        85  IM1H      DC4           -11.1101705749       34.1889004554      -10.7234239567  IM1H      85              0.0000000000
      1696        85  IM1H      H6            -12.0709166476       33.6634964939      -10.5179995874  IM1H      85              0.0000000000
      1697        85  IM1H      N2             -9.9365798303       33.5650620274      -10.9810738745  IM1H      85              0.0000000000
      1698        85  IM1H      DN2            -9.9348887573       33.5818907658      -10.9699922074  IM1H      85              0.0000000000
      1699        85  IM1H      H7             -9.8075627070       32.5853450761      -11.1344012279  IM1H      85              0.0000000000
      1700        85  IM1H      LPN21          -9.8890516864       33.2689262183      -10.9877565457  IM1H      85              0.0000000000
      1701        86  IM1H      C1              3.7855955535      -27.2241601606       12.3890836706  IM1H      86              0.0000000000
      1702        86  IM1H      DC1             3.7990203304      -27.2072974585       12.3960186953  IM1H      86              0.0000000000
      1703        86  IM1H      H1              4.3991698632      -27.6902048632       13.1894897565  IM1H      86              0.0000000000
      1704        86  IM1H      H2              3.4192599654      -27.9941384091       11.6768668962  IM1H      86              0.0000000000
      1705        86  IM1H      H3              2.9231066031      -26.6762590975       12.8252467564  IM1H      86              0.0000000000
      1706        86  IM1H      N1              4.6180908849      -26.3206280245       11.6318650396  IM1H      86              0.0000000000
      1707        86  IM1H      DN1             4.6240540337      -26.3126749276       11.6279270705  IM1H      86              0.0000000000
      1708        86  IM1H      C2              5.7404299655      -26.6618883219       10.9259619783  IM1H      86              0.0000000000
      1709        86  IM1H      DC2             5.7241059653      -26.6532499633       10.9424486793  IM1H      86              0.0000000000
      1710        86  IM1H      H4              6.1142085206      -27.6783186938       10.9328823093  IM1H      86              0.0000000000
      1711        86  IM1H      C3              6.1939233723      -25.5294161406       10.3044839907  IM1H      86              0.0000000000
      1712        86  IM1H      DC3             6.1764090799      -25.5489078587       10.2970485862  IM1H      86              0.0000000000
      1713        86  IM1H      H5              7.0767634301      -25.3065360410        9.7181335039  IM1H      86              0.0000000000
      1714        86  IM1H      C4              4.4002281937      -25.0192651817       11.4629876240  IM1H      86              0.0000000000
      1715        86  IM1H      DC4             4.3894120598      -25.0459219311       11.4770721060  IM1H      86              0.0000000000
      1716        86  IM1H      H6              3.5681461139      -24.4541625780       11.8829857902  IM1H      86              0.0000000000
      1717        86  IM1H      N2              5.3266170866      -24.5223138988       10.6323455550  IM1H      86              0.0000000000
      1718        86  IM1H      DN2             5.3017688948      -24.5379289037       10.6269657924  IM1H      86              0.0000000000
      1719        86  IM1H      H7              5.5390723223      -23.5597055070       10.4642745670  IM1H      86              0.0000000000
      1720        86  IM1H      LPN21           5.3377432320      -24.2379763427       10.5373278561  IM1H      86              0.0000000000
      1721        87  IM1H      C1            -26.4845501618       17.7765825491        7.2194982711  IM1H      87              0.0000000000
      1722        87  IM1H      DC1           -26.4788910687       17.7947627176        7.2240504968  IM1H      87              0.0000000000
      1723        87  IM1H      H1            -27.5733238778       17.6236879769        7.0597608391  IM1H      87              0.0000000000
      1724        87  IM1H      H2            -25.9833451132       16.7879689117        7.2953769577  IM1H      87              0.0000000000
      1725        87  IM1H      H3            -26.0489780295       18.3726294865        6.3892417043  IM1H      87              0.0000000000
      1726        87  IM1H      N1            -26.2809771282       18.4910110705        8.4716736552  IM1H      87              0.0000000000
      1727        87  IM1H      DN1           -26.2802930163       18.5085395177        8.4777651200  IM1H      87              0.0000000000
      1728        87  IM1H      C2            -26.7281493519       18.0775595510        9.6935981714  IM1H      87              0.0000000000
      1729        87  IM1H      DC2           -26.7345447106       18.1014880004        9.6740131512  IM1H      87              0.0000000000
      1730        87  IM1H      H4            -27.2349827493       17.1247545340        9.7839945592  IM1H      87              0.0000000000
      1731        87  IM1H      C3            -26.3605966772       19.0169146816       10.6246506289  IM1H      87              0.0000000000
      1732        87  IM1H      DC3           -26.3630890649       19.0161349281       10.6117491877  IM1H      87              0.0000000000
      1733        87  IM1H      H5            -26.5135970702       19.0683772441       11.6955528113  IM1H      87              0.0000000000
      1734        87  IM1H      C4            -25.6579825205       19.6602900733        8.6428037493  IM1H      87              0.0000000000
      1735        87  IM1H      DC4           -25.6627187512       19.6550159941        8.6188600870  IM1H      87              0.0000000000
      1736        87  IM1H      H6            -25.2020355541       20.2302702170        7.8332761095  IM1H      87              0.0000000000
      1737        87  IM1H      N2            -25.6842334590       20.0014838024        9.9490467323  IM1H      87              0.0000000000
      1738        87  IM1H      DN2           -25.6765667746       19.9921888491        9.9330755460  IM1H      87              0.0000000000
      1739        87  IM1H      H7            -25.3914255421       20.8641712464       10.3613984000  IM1H      87              0.0000000000
      1740        87  IM1H      LPN21         -25.5627472927       20.2492096417       10.0668305171  IM1H      87              0.0000000000
      1741        88  IM1H      C1            -14.1499615265      -33.4838612501      -32.9899445636  IM1H      88              0.0000000000
      1742        88  IM1H      DC1           -14.1655275728      -33.4767830929      -32.9751652842  IM1H      88              0.0000000000
      1743        88  IM1H      H1            -13.7421268530      -32.5468960458      -32.5539536401  IM1H      88              0.0000000000
      1744        88  IM1H      H2            -14.2596867976      -33.3791534264      -34.0905433264  IM1H      88              0.0000000000
      1745        88  IM1H      H3            -13.4819719089      -34.3262752360      -32.7098560981  IM1H      88              0.0000000000
      1746        88  IM1H      N1            -15.4847853864      -33.7488954962      -32.4955404346  IM1H      88              0.0000000000
      1747        88  IM1H      DN1           -15.4963800852      -33.7475546571      -32.4901206028  IM1H      88              0.0000000000
      1748        88  IM1H      C2            -16.5130216821      -32.8559721535      -32.5491087282  IM1H      88              0.0000000000
      1749        88  IM1H      DC2           -16.4926412022      -32.8588988076      -32.5536848677  IM1H      88              0.0000000000
      1750        88  IM1H      H4            -16.3509321374      -31.8713472057      -32.9699765123  IM1H      88              0.0000000000
      1751        88  IM1H      C3            -17.6294135323      -33.4694974170      -32.0377726726  IM1H      88              0.0000000000
      1752        88  IM1H      DC3           -17.6160888215      -33.4633036761      -32.0495608083  IM1H      88              0.0000000000
      1753        88  IM1H      H5            -18.6344541631      -33.1034100697      -31.8681779066  IM1H      88              0.0000000000
      1754        88  IM1H      C4            -15.9589802987      -34.8920333687      -31.9932777627  IM1H      88              0.0000000000
      1755        88  IM1H      DC4           -15.9338634933      -34.8713122422      -31.9946955758  IM1H      88              0.0000000000
      1756        88  IM1H      H6            -15.3790118854      -35.8079752054      -31.8801972992  IM1H      88              0.0000000000
      1757        88  IM1H      N2            -17.2660103482      -34.7484233292      -31.6914863660  IM1H      88              0.0000000000
      1758        88  IM1H      DN2           -17.2500427845      -34.7383006105      -31.6884974706  IM1H      88              0.0000000000
      1759        88  IM1H      H7            -17.8803216740      -35.4671035543      -31.3657252126  IM1H      88              0.0000000000
      1760        88  IM1H      LPN21         -17.4415546482      -34.9597097259      -31.5708950839  IM1H      88              0.0000000000
      1761        89  IM1H      C1            -25.4747925812       17.9720175600      -32.0951770721  IM1H      89              0.0000000000
      1762        89  IM1H      DC1           -25.4878468832       17.9838058109      -32.1029001239  IM1H      89              0.0000000000
      1763        89  IM1H      H1            -25.3759805568       17.0018301937      -32.6274304513  IM1H      89              0.0000000000
      1764        89  IM1H      H2            -25.5417405309       17.7964258855      -31.0001855033  IM1H      89              0.0000000000
      1765        89  IM1H      H3            -24.6007249465       18.6213646245      -32.3158015439  IM1H      89              0.0000000000
      1766        89  IM1H      N1            -26.7083876984       18.6327883237      -32.5409456843  IM1H      89              0.0000000000
      1767        89  IM1H      DN1           -26.7225493097       18.6467440718      -32.5499028961  IM1H      89              0.0000000000
      1768        89  IM1H      C2            -27.9772955617       18.1202787156      -32.4437846480  IM1H      89              0.0000000000
      1769        89  IM1H      DC2           -27.9619234761       18.1429528110      -32.4514468710  IM1H      89              0.0000000000
      1770        89  IM1H      H4            -28.1325167614       17.1337312493      -32.0248342024  IM1H      89              0.0000000000
      1771        89  IM1H      C3            -28.8574833652       19.0597907453      -32.9288785179  IM1H      89              0.0000000000
      1772        89  IM1H      DC3           -28.8496061574       19.0673370672      -32.9340934405  IM1H      89              0.0000000000
      1773        89  IM1H      H5            -29.9384867403       19.0388446276      -32.9911839211  IM1H      89              0.0000000000
      1774        89  IM1H      C4            -26.8113526801       19.8553423922      -33.0747929060  IM1H      89              0.0000000000
      1775        89  IM1H      DC4           -26.8067144460       19.8433384591      -33.0751065192  IM1H      89              0.0000000000
      1776        89  IM1H      H6            -25.9542824458       20.5052108579      -33.2514326265  IM1H      89              0.0000000000
      1777        89  IM1H      N2            -28.1083521540       20.1437762302      -33.3252465560  IM1H      89              0.0000000000
      1778        89  IM1H      DN2           -28.1054534668       20.1453496045      -33.3272134207  IM1H      89              0.0000000000
      1779        89  IM1H      H7            -28.4560170895       21.0000501144      -33.7072467234  IM1H      89              0.0000000000
      1780        89  IM1H      LPN21         -28.2101945606       20.3990341280      -33.4455442277  IM1H      89              0.0000000000
      1781        90  IM1H      C1             19.1177009293       26.4278337428       -6.7671257867  IM1H      90              0.0000000000
      1782        90  IM1H      DC1            19.1230654791       26.4301874385       -6.7770741140  IM1H      90              0.0000000000
      1783        90  IM1H      H1             19.4582906757       27.1791151645       -6.0228839901  IM1H      90              0.0000000000
      1784        90  IM1H      H2             19.4455555612       26.7069462157       -7.7912979247  IM1H      90              0.0000000000
      1785        90  IM1H      H3             19.4999530919       25.4282022575       -6.4688957114  IM1H      90              0.0000000000
      1786        90  IM1H      N1             17.6635964620       26.3778684101       -6.7523657706  IM1H      90              0.0000000000
      1787        90  IM1H      DN1            17.6620490403       26.3781808881       -6.7554900473  IM1H      90              0.0000000000
      1788        90  IM1H      C2             16.8375696147       27.4401498860       -6.9867884615  IM1H      90              0.0000000000
      1789        90  IM1H      DC2            16.8635543345       27.4323961074       -6.9867884664  IM1H      90              0.0000000000
      1790        90  IM1H      H4             17.2496421688       28.4060301523       -7.2516667759  IM1H      90              0.0000000000
      1791        90  IM1H      C3             15.5464737678       27.0261256872       -6.7734128656  IM1H      90              0.0000000000
      1792        90  IM1H      DC3            15.5675951249       27.0296881550       -6.7932215627  IM1H      90              0.0000000000
      1793        90  IM1H      H5             14.5977634480       27.5482273312       -6.7891482564  IM1H      90              0.0000000000
      1794        90  IM1H      C4             16.8990159977       25.3338703035       -6.4179578853  IM1H      90              0.0000000000
      1795        90  IM1H      DC4            16.9345561432       25.3405553954       -6.4308590510  IM1H      90              0.0000000000
      1796        90  IM1H      H6             17.2780403376       24.3463015711       -6.1549967694  IM1H      90              0.0000000000
      1797        90  IM1H      N2             15.6004479121       25.6995744691       -6.4286118039  IM1H      90              0.0000000000
      1798        90  IM1H      DN2            15.6252548311       25.6952027452       -6.4506859184  IM1H      90              0.0000000000
      1799        90  IM1H      H7             14.8269704398       25.2010802995       -6.0371578952  IM1H      90              0.0000000000
      1800        90  IM1H      LPN21          15.3682010711       25.5202107992       -6.3662413081  IM1H      90              0.0000000000
      1801        91  IM1H      C1             29.4508980409      -15.5146647256       28.1591047196  IM1H      91              0.0000000000
      1802        91  IM1H      DC1            29.4622086056      -15.5101905846       28.1536271637  IM1H      91              0.0000000000
      1803        91  IM1H      H1             29.1403639728      -16.2115188463       27.3514637544  IM1H      91              0.0000000000
      1804        91  IM1H      H2             29.1247363791      -14.4799389842       27.9197676968  IM1H      91              0.0000000000
      1805        91  IM1H      H3             28.9940121021      -15.8532990931       29.1135171066  IM1H      91              0.0000000000
      1806        91  IM1H      N1             30.9204458263      -15.5433616623       28.2828734081  IM1H      91              0.0000000000
      1807        91  IM1H      DN1            30.9312875273      -15.5437368179       28.2804830276  IM1H      91              0.0000000000
      1808        91  IM1H      C2             31.8172252620      -15.3112222398       27.2707709475  IM1H      91              0.0000000000
      1809        91  IM1H      DC2            31.7974018964      -15.3181805537       27.2788406014  IM1H      91              0.0000000000
      1810        91  IM1H      H4             31.4785905971      -14.9945493886       26.2920299854  IM1H      91              0.0000000000
      1811        91  IM1H      C3             33.0834634231      -15.5497507307       27.7516225294  IM1H      91              0.0000000000
      1812        91  IM1H      DC3            33.0658952590      -15.5470476248       27.7526402612  IM1H      91              0.0000000000
      1813        91  IM1H      H5             34.0571694963      -15.4832662308       27.2821917100  IM1H      91              0.0000000000
      1814        91  IM1H      C4             31.6285984607      -15.9178594313       29.3578000937  IM1H      91              0.0000000000
      1815        91  IM1H      DC4            31.6077418014      -15.9097229923       29.3436728337  IM1H      91              0.0000000000
      1816        91  IM1H      H6             31.1891094982      -16.2425264102       30.3009548025  IM1H      91              0.0000000000
      1817        91  IM1H      N2             32.9468579230      -15.9328862301       29.0635845210  IM1H      91              0.0000000000
      1818        91  IM1H      DN2            32.9368443111      -15.9281968283       29.0616101440  IM1H      91              0.0000000000
      1819        91  IM1H      H7             33.6846253148      -16.2292939397       29.6700841062  IM1H      91              0.0000000000
      1820        91  IM1H      LPN21          33.1670682885      -16.0071072967       29.2533175656  IM1H      91              0.0000000000
      1821        92  IM1H      C1            -32.8594205509       -0.4112390658       14.8137516802  IM1H      92              0.0000000000
      1822        92  IM1H      DC1           -32.8685854429       -0.4097726710       14.8095026489  IM1H      92              0.0000000000
      1823        92  IM1H      H1            -32.2809854492       -0.1141913324       15.7145826732  IM1H      92              0.0000000000
      1824        92  IM1H      H2            -32.4130377827        0.0396195580       13.9017265020  IM1H      92              0.0000000000
      1825        92  IM1H      H3            -32.8779850624       -1.5186325128       14.7262524523  IM1H      92              0.0000000000
      1826        92  IM1H      N1            -34.2277819347        0.0905790805       14.9514472558  IM1H      92              0.0000000000
      1827        92  IM1H      DN1           -34.2377755001        0.0951664775       14.9595957283  IM1H      92              0.0000000000
      1828        92  IM1H      C2            -34.5904367554        1.4029873467       15.0975137199  IM1H      92              0.0000000000
      1829        92  IM1H      DC2           -34.5917487636        1.3811890789       15.1023899475  IM1H      92              0.0000000000
      1830        92  IM1H      H4            -33.8380540874        2.1819595281       15.0940987964  IM1H      92              0.0000000000
      1831        92  IM1H      C3            -35.9565892042        1.4570639086       15.2296615526  IM1H      92              0.0000000000
      1832        92  IM1H      DC3           -35.9599581779        1.4558552277       15.2347120377  IM1H      92              0.0000000000
      1833        92  IM1H      H5            -36.6218602228        2.3006571329       15.3662409936  IM1H      92              0.0000000000
      1834        92  IM1H      C4            -35.3483274319       -0.6363378465       14.9753624026  IM1H      92              0.0000000000
      1835        92  IM1H      DC4           -35.3280827963       -0.6240554674       14.9781818558  IM1H      92              0.0000000000
      1836        92  IM1H      H6            -35.3838158135       -1.7236690209       14.9078976569  IM1H      92              0.0000000000
      1837        92  IM1H      N2            -36.4174650107        0.1668944455       15.1464025675  IM1H      92              0.0000000000
      1838        92  IM1H      DN2           -36.4185368191        0.1708759539       15.1468392238  IM1H      92              0.0000000000
      1839        92  IM1H      H7            -37.3639859173       -0.1498268059       15.2079316032  IM1H      92              0.0000000000
      1840        92  IM1H      LPN21         -36.7028948301        0.0759998947       15.1627732363  IM1H      92              0.0000000000
      1841        93  IM1H      C1            -29.9354216871      -30.6695436152       -8.5404484507  IM1H      93              0.0000000000
      1842        93  IM1H      DC1           -29.9251151933      -30.6820149907       -8.5300596572  IM1H      93              0.0000000000
      1843        93  IM1H      H1            -30.3805431317      -31.3021020022       -9.3379807620  IM1H      93              0.0000000000
      1844        93  IM1H      H2            -29.1172530242      -30.0422531112       -8.9544866887  IM1H      93              0.0000000000
      1845        93  IM1H      H3            -30.7146403228      -30.0093680419       -8.1030612854  IM1H      93              0.0000000000
      1846        93  IM1H      N1            -29.3943625052      -31.5378452278       -7.4890455336  IM1H      93              0.0000000000
      1847        93  IM1H      DN1           -29.3880029808      -31.5438569713       -7.4763608610  IM1H      93              0.0000000000
      1848        93  IM1H      C2            -28.4058924317      -32.4735545172       -7.6466372930  IM1H      93              0.0000000000
      1849        93  IM1H      DC2           -28.4212336305      -32.4601566986       -7.6385217567  IM1H      93              0.0000000000
      1850        93  IM1H      H4            -27.9313299273      -32.6142097170       -8.6099106417  IM1H      93              0.0000000000
      1851        93  IM1H      C3            -28.1509279045      -33.0394390268       -6.4198155729  IM1H      93              0.0000000000
      1852        93  IM1H      DC3           -28.1517131119      -33.0373128331       -6.4186604696  IM1H      93              0.0000000000
      1853        93  IM1H      H5            -27.4278314759      -33.7869416431       -6.1177222205  IM1H      93              0.0000000000
      1854        93  IM1H      C4            -29.7373333419      -31.5359948081       -6.1969959137  IM1H      93              0.0000000000
      1855        93  IM1H      DC4           -29.7352454538      -31.5293140804       -6.2161470503  IM1H      93              0.0000000000
      1856        93  IM1H      H6            -30.5095055286      -30.8994663020       -5.7649292812  IM1H      93              0.0000000000
      1857        93  IM1H      N2            -28.9960433366      -32.4387160084       -5.5218118682  IM1H      93              0.0000000000
      1858        93  IM1H      DN2           -28.9982563475      -32.4388314392       -5.5240093386  IM1H      93              0.0000000000
      1859        93  IM1H      H7            -29.0464949419      -32.6122455948       -4.5382763487  IM1H      93              0.0000000000
      1860        93  IM1H      LPN21         -29.0154844033      -32.4951186419       -5.2278037257  IM1H      93              0.0000000000
      1861        94  IM1H      C1             19.6534263988       27.2657881045       10.9460353403  IM1H      94              0.0000000000
      1862        94  IM1H      DC1            19.6550050042       27.2746060964       10.9538168454  IM1H      94              0.0000000000
      1863        94  IM1H      H1             18.5604591099       27.1229954789       10.8069175069  IM1H      94              0.0000000000
      1864        94  IM1H      H2             20.0147693683       26.6814045831       11.8191035848  IM1H      94              0.0000000000
      1865        94  IM1H      H3             20.1963015083       26.9388444280       10.0335029035  IM1H      94              0.0000000000
      1866        94  IM1H      N1             19.9197834475       28.6886479182       11.1855963972  IM1H      94              0.0000000000
      1867        94  IM1H      DN1            19.9242838914       28.7036876023       11.1853855491  IM1H      94              0.0000000000
      1868        94  IM1H      C2             19.4229978826       29.4218980970       12.2277578083  IM1H      94              0.0000000000
      1869        94  IM1H      DC2            19.4342520391       29.4102142527       12.2130421732  IM1H      94              0.0000000000
      1870        94  IM1H      H4             18.7759466966       28.9537515492       12.9592306871  IM1H      94              0.0000000000
      1871        94  IM1H      C3             19.8853577875       30.7106930849       12.1049900743  IM1H      94              0.0000000000
      1872        94  IM1H      DC3            19.8888646329       30.6991658710       12.0944626319  IM1H      94              0.0000000000
      1873        94  IM1H      H5             19.7230243538       31.5871139578       12.7201512807  IM1H      94              0.0000000000
      1874        94  IM1H      C4             20.6728476551       29.5096508078       10.4445140689  IM1H      94              0.0000000000
      1875        94  IM1H      DC4            20.6634163814       29.4992370345       10.4495187943  IM1H      94              0.0000000000
      1876        94  IM1H      H6             21.1628697318       29.2014284159        9.5209463554  IM1H      94              0.0000000000
      1877        94  IM1H      N2             20.6700746654       30.7505175714       10.9800503257  IM1H      94              0.0000000000
      1878        94  IM1H      DN2            20.6705272421       30.7461564018       10.9741793562  IM1H      94              0.0000000000
      1879        94  IM1H      H7             21.1419552378       31.5585897864       10.6274201785  IM1H      94              0.0000000000
      1880        94  IM1H      LPN21          20.8156032613       30.9888092618       10.8703302361  IM1H      94              0.0000000000
      1881        95  IM1H      C1             24.1939834338      -36.5201293027        1.1823582013  IM1H      95              0.0000000000
      1882        95  IM1H      DC1            24.2087829214      -36.5207136357        1.1789905920  IM1H      95              0.0000000000
      1883        95  IM1H      H1             24.3354157931      -37.2347418655        2.0211947604  IM1H      95              0.0000000000
      1884        95  IM1H      H2             23.7762251850      -37.0630341881        0.3076849297  IM1H      95              0.0000000000
      1885        95  IM1H      H3             23.4806980821      -35.7410094047        1.5266214611  IM1H      95              0.0000000000
      1886        95  IM1H      N1             25.4710995502      -35.8747307810        0.7963231451  IM1H      95              0.0000000000
      1887        95  IM1H      DN1            25.4858904574      -35.8782977223        0.7884814379  IM1H      95              0.0000000000
      1888        95  IM1H      C2             26.5841689247      -36.4745217605        0.2559848842  IM1H      95              0.0000000000
      1889        95  IM1H      DC2            26.5768206978      -36.4770023635        0.2584608152  IM1H      95              0.0000000000
      1890        95  IM1H      H4             26.6332929088      -37.5536177557        0.1783468310  IM1H      95              0.0000000000
      1891        95  IM1H      C3             27.4868811674      -35.4911792095       -0.0822220598  IM1H      95              0.0000000000
      1892        95  IM1H      DC3            27.4843011692      -35.5060899774       -0.0876534114  IM1H      95              0.0000000000
      1893        95  IM1H      H5             28.4701836469      -35.5231328753       -0.5349738649  IM1H      95              0.0000000000
      1894        95  IM1H      C4             25.7039623620      -34.5569413197        0.7993017800  IM1H      95              0.0000000000
      1895        95  IM1H      DC4            25.6977996757      -34.5898705718        0.7957287555  IM1H      95              0.0000000000
      1896        95  IM1H      H6             25.0041843291      -33.8185183086        1.1906356033  IM1H      95              0.0000000000
      1897        95  IM1H      N2             26.9203487429      -34.2911181548        0.2701315595  IM1H      95              0.0000000000
      1898        95  IM1H      DN2            26.9155565404      -34.3060718010        0.2682897830  IM1H      95              0.0000000000
      1899        95  IM1H      H7             27.3298895436      -33.3860881368        0.1552533677  IM1H      95              0.0000000000
      1900        95  IM1H      LPN21          27.0411570652      -34.0184911006        0.2372706625  IM1H      95              0.0000000000
      1901        96  IM1H      C1              7.7950727405      -35.4727843430       34.4800415719  IM1H      96              0.0000000000
      1902        96  IM1H      DC1             7.7992227454      -35.4667579586       34.4873162130  IM1H      96              0.0000000000
      1903        96  IM1H      H1              6.9550533608      -34.7898285727       34.2305223163  IM1H      96              0.0000000000
      1904        96  IM1H      H2              7.5058711894      -36.1434260574       35.3172531071  IM1H      96              0.0000000000
      1905        96  IM1H      H3              8.0686006888      -36.0782152271       33.5895602942  IM1H      96              0.0000000000
      1906        96  IM1H      N1              8.9516588044      -34.6660160998       34.8966042743  IM1H      96              0.0000000000
      1907        96  IM1H      DN1             8.9579111556      -34.6601628805       34.9010492225  IM1H      96              0.0000000000
      1908        96  IM1H      C2              8.9865147480      -33.7989344460       35.9599432255  IM1H      96              0.0000000000
      1909        96  IM1H      DC2             8.9893317913      -33.8103096080       35.9432577910  IM1H      96              0.0000000000
      1910        96  IM1H      H4              8.1151795188      -33.6709507758       36.5902479924  IM1H      96              0.0000000000
      1911        96  IM1H      C3             10.2394306448      -33.2332529156       36.0088507672  IM1H      96              0.0000000000
      1912        96  IM1H      DC3            10.2354981888      -33.2350536081       36.0093711606  IM1H      96              0.0000000000
      1913        96  IM1H      H5             10.6718818256      -32.5072745499       36.6862209687  IM1H      96              0.0000000000
      1914        96  IM1H      C4             10.1563971276      -34.6318578270       34.3134492764  IM1H      96              0.0000000000
      1915        96  IM1H      DC4            10.1303773180      -34.6321501758       34.3238276516  IM1H      96              0.0000000000
      1916        96  IM1H      H6             10.4385297589      -35.2253183981       33.4437908778  IM1H      96              0.0000000000
      1917        96  IM1H      N2             10.9620994451      -33.7671834682       34.9683717216  IM1H      96              0.0000000000
      1918        96  IM1H      DN2            10.9551182481      -33.7688537032       34.9703571115  IM1H      96              0.0000000000
      1919        96  IM1H      H7             11.9115076015      -33.5612639777       34.7312613758  IM1H      96              0.0000000000
      1920        96  IM1H      LPN21          11.2467838935      -33.7056098340       34.8965145549  IM1H      96              0.0000000000
      1921        97  IM1H      C1              8.8724737059        7.5375130267      -19.7404625806  IM1H      97              0.0000000000
      1922        97  IM1H      DC1             8.8538147858        7.5359223915      -19.7446968289  IM1H      97              0.0000000000
      1923        97  IM1H      H1              9.6515650559        7.4248552347      -18.9564690268  IM1H      97              0.0000000000
      1924        97  IM1H      H2              8.3262164304        8.4915036207      -19.5797580815  IM1H      97              0.0000000000
      1925        97  IM1H      H3              9.3470145956        7.5320016561      -20.7450030571  IM1H      97              0.0000000000
      1926        97  IM1H      N1              7.9290603246        6.4188095351      -19.6365481055  IM1H      97              0.0000000000
      1927        97  IM1H      DN1             7.9214648856        6.4153670502      -19.6421275921  IM1H      97              0.0000000000
      1928        97  IM1H      C2              7.1282506082        6.1581259960      -18.5556121592  IM1H      97              0.0000000000
      1929        97  IM1H      DC2             7.1386805934        6.1696399153      -18.5835748999  IM1H      97              0.0000000000
      1930        97  IM1H      H4              7.1693131703        6.7796010482      -17.6696259147  IM1H      97              0.0000000000
      1931        97  IM1H      C3              6.3831530474        5.0376606924      -18.8345823709  IM1H      97              0.0000000000
      1932        97  IM1H      DC3             6.3916597639        5.0517116350      -18.8468976107  IM1H      97              0.0000000000
      1933        97  IM1H      H5              5.6450492003        4.4989249250      -18.2533289977  IM1H      97              0.0000000000
      1934        97  IM1H      C4              7.6818543133        5.4740238657      -20.5546275506  IM1H      97              0.0000000000
      1935        97  IM1H      DC4             7.6912630129        5.4998457355      -20.5509068030  IM1H      97              0.0000000000
      1936        97  IM1H      H6              8.1816947728        5.4074674197      -21.5209762219  IM1H      97              0.0000000000
      1937        97  IM1H      N2              6.7426487888        4.6173419642      -20.0905595788  IM1H      97              0.0000000000
      1938        97  IM1H      DN2             6.7527675421        4.6279901239      -20.0971368061  IM1H      97              0.0000000000
      1939        97  IM1H      H7              6.3361738115        3.8270485873      -20.5490510958  IM1H      97              0.0000000000
      1940        97  IM1H      LPN21           6.6346973141        4.3794857764      -20.2381092756  IM1H      97              0.0000000000
      1941        98  IM1H      C1            -12.2896492868       21.5242277672      -32.2983620325  IM1H      98              0.0000000000
      1942        98  IM1H      DC1           -12.2736377534       21.5305006485      -32.3167386662  IM1H      98              0.0000000000
      1943        98  IM1H      H1            -12.8654905182       22.3892195769      -31.9052754703  IM1H      98              0.0000000000
      1944        98  IM1H      H2            -11.2408915406       21.5396308112      -31.9320412192  IM1H      98              0.0000000000
      1945        98  IM1H      H3            -12.7753366638       20.5771972206      -31.9796742282  IM1H      98              0.0000000000
      1946        98  IM1H      N1            -12.2593926691       21.5929943327      -33.7534288513  IM1H      98              0.0000000000
      1947        98  IM1H      DN1           -12.2568687336       21.5951614870      -33.7705275091  IM1H      98              0.0000000000
      1948        98  IM1H      C2            -11.7955016228       22.6469622750      -34.4954829385  IM1H      98              0.0000000000
      1949        98  IM1H      DC2           -11.7989638955       22.6320662918      -34.4858460283  IM1H      98              0.0000000000
      1950        98  IM1H      H4            -11.4525766748       23.5567865452      -34.0185015161  IM1H      98              0.0000000000
      1951        98  IM1H      C3            -11.8906635677       22.3021664891      -35.8183060373  IM1H      98              0.0000000000
      1952        98  IM1H      DC3           -11.8831434375       22.3082773131      -35.8159947436  IM1H      98              0.0000000000
      1953        98  IM1H      H5            -11.6624342902       22.8485197974      -36.7251127750  IM1H      98              0.0000000000
      1954        98  IM1H      C4            -12.6235382047       20.6294390446      -34.6017177504  IM1H      98              0.0000000000
      1955        98  IM1H      DC4           -12.6174441219       20.6377363310      -34.5796788023  IM1H      98              0.0000000000
      1956        98  IM1H      H6            -13.0616851190       19.6751492793      -34.3093851910  IM1H      98              0.0000000000
      1957        98  IM1H      N2            -12.3958493194       21.0330888446      -35.8664489948  IM1H      98              0.0000000000
      1958        98  IM1H      DN2           -12.3847754314       21.0373204810      -35.8508402604  IM1H      98              0.0000000000
      1959        98  IM1H      H7            -12.6229217441       20.5171830374      -36.6924509998  IM1H      98              0.0000000000
      1960        98  IM1H      LPN21         -12.4480032454       20.8704512987      -36.1130843464  IM1H      98              0.0000000000
      1961        99  IM1H      C1             27.7440715553       18.1386184477       20.3455872543  IM1H      99              0.0000000000
      1962        99  IM1H      DC1            27.7583168424       18.1354747689       20.3393353597  IM1H      99              0.0000000000
      1963        99  IM1H      H1             27.5668826062       17.0927671662       20.6759206817  IM1H      99              0.0000000000
      1964        99  IM1H      H2             26.9350427109       18.4578116231       19.6542775929  IM1H      99              0.0000000000
      1965        99  IM1H      H3             27.7786205272       18.8199527888       21.2224628925  IM1H      99              0.0000000000
      1966        99  IM1H      N1             29.0237246202       18.1835461741       19.6296523886  IM1H      99              0.0000000000
      1967        99  IM1H      DN1            29.0373611967       18.1818207811       19.6226173640  IM1H      99              0.0000000000
      1968        99  IM1H      C2             29.3301420309       17.4584218856       18.5067794717  IM1H      99              0.0000000000
      1969        99  IM1H      DC2            29.3300331903       17.4666589754       18.5207760563  IM1H      99              0.0000000000
      1970        99  IM1H      H4             28.5997538429       16.7808347328       18.0821646519  IM1H      99              0.0000000000
      1971        99  IM1H      C3             30.6078178604       17.7844020902       18.1207175185  IM1H      99              0.0000000000
      1972        99  IM1H      DC3            30.6073435750       17.7796048465       18.1242594409  IM1H      99              0.0000000000
      1973        99  IM1H      H5             31.2114495503       17.4511846757       17.2855624792  IM1H      99              0.0000000000
      1974        99  IM1H      C4             30.0921270933       18.9314780416       19.9274828141  IM1H      99              0.0000000000
      1975        99  IM1H      DC4            30.0757331035       18.9156806065       19.9251874696  IM1H      99              0.0000000000
      1976        99  IM1H      H6             30.1460568465       19.6187521553       20.7717848195  IM1H      99              0.0000000000
      1977        99  IM1H      N2             31.0720889408       18.7075670757       19.0248928225  IM1H      99              0.0000000000
      1978        99  IM1H      DN2            31.0732227723       18.7022309186       19.0278775803  IM1H      99              0.0000000000
      1979        99  IM1H      H7             31.9569286528       19.1724305416       18.9938985938  IM1H      99              0.0000000000
      1980        99  IM1H      LPN21          31.3420918586       18.8383275789       19.0252321888  IM1H      99              0.0000000000
      1981       100  IM1H      C1             15.5896974922      -21.2469699658      -33.4877868545  IM1H      100             0.0000000000
      1982       100  IM1H      DC1            15.6163701264      -21.2511987945      -33.4828746848  IM1H      100             0.0000000000
      1983       100  IM1H      H1             15.7230990784      -20.7530455776      -34.4739733054  IM1H      100             0.0000000000
      1984       100  IM1H      H2             14.5738060257      -21.0171379529      -33.1011826974  IM1H      100             0.0000000000
      1985       100  IM1H      H3             15.6694413773      -22.3515303834      -33.5767149061  IM1H      100             0.0000000000
      1986       100  IM1H      N1             16.6042436472      -20.7335092345      -32.5508198634  IM1H      100             0.0000000000
      1987       100  IM1H      DN1            16.6229477185      -20.7373595509      -32.5435213080  IM1H      100             0.0000000000
      1988       100  IM1H      C2             16.7271750236      -19.4276499371      -32.1585634265  IM1H      100             0.0000000000
      1989       100  IM1H      DC2            16.7289414522      -19.4530726795      -32.1658807750  IM1H      100             0.0000000000
      1990       100  IM1H      H4             16.0672093747      -18.6712033470      -32.5649165962  IM1H      100             0.0000000000
      1991       100  IM1H      C3             17.7556369437      -19.3462324372      -31.2487582841  IM1H      100             0.0000000000
      1992       100  IM1H      DC3            17.7507332088      -19.3546107270      -31.2524535696  IM1H      100             0.0000000000
      1993       100  IM1H      H5             18.1595065214      -18.5069243360      -30.6961822482  IM1H      100             0.0000000000
      1994       100  IM1H      C4             17.5476849387      -21.4304932815      -31.8975925384  IM1H      100             0.0000000000
      1995       100  IM1H      DC4            17.5271404715      -21.4531189038      -31.9079931160  IM1H      100             0.0000000000
      1996       100  IM1H      H6             17.7107216773      -22.5012374622      -32.0201728030  IM1H      100             0.0000000000
      1997       100  IM1H      N2             18.2691987997      -20.6116160093      -31.0970400662  IM1H      100             0.0000000000
      1998       100  IM1H      DN2            18.2492117640      -20.6244612905      -31.1064694151  IM1H      100             0.0000000000
      1999       100  IM1H      H7             19.0524610950      -20.8397377734      -30.5187143472  IM1H      100             0.0000000000
      2000       100  IM1H      LPN21          18.4975978524      -20.6942387275      -30.9209510003  IM1H      100             0.0000000000
      2001       101  IM1H      C1            -14.3450602630      -28.3780998486      -10.3653900032  IM1H      101             0.0000000000
      2002       101  IM1H      DC1           -14.3415042700      -28.3875355491      -10.3569003526  IM1H      101             0.0000000000
      2003       101  IM1H      H1            -13.5310798581      -28.6482778675      -11.0716199509  IM1H      101             0.0000000000
      2004       101  IM1H      H2            -14.0334609384      -27.5120167754       -9.7431947194  IM1H      101             0.0000000000
      2005       101  IM1H      H3            -15.2736404752      -28.1280870333      -10.9217652212  IM1H      101             0.0000000000
      2006       101  IM1H      N1            -14.5842231037      -29.5325863560       -9.4932965933  IM1H      101             0.0000000000
      2007       101  IM1H      DN1           -14.5894590375      -29.5413722906       -9.4860135779  IM1H      101             0.0000000000
      2008       101  IM1H      C2            -13.6482550629      -30.1413985165       -8.6974522451  IM1H      101             0.0000000000
      2009       101  IM1H      DC2           -13.6707947999      -30.1296022489       -8.7077546314  IM1H      101             0.0000000000
      2010       101  IM1H      H4            -12.6241746150      -29.7902196787       -8.6687876213  IM1H      101             0.0000000000
      2011       101  IM1H      C3            -14.2560567991      -31.1939817498       -8.0573602982  IM1H      101             0.0000000000
      2012       101  IM1H      DC3           -14.2620222515      -31.1864450041       -8.0551823048  IM1H      101             0.0000000000
      2013       101  IM1H      H5            -13.8608115579      -31.9239810562       -7.3618236622  IM1H      101             0.0000000000
      2014       101  IM1H      C4            -15.7354692838      -30.1989821366       -9.3415757951  IM1H      101             0.0000000000
      2015       101  IM1H      DC4           -15.7213502014      -30.1873777306       -9.3477530322  IM1H      101             0.0000000000
      2016       101  IM1H      H6            -16.6575555673      -29.9473177827       -9.8655242075  IM1H      101             0.0000000000
      2017       101  IM1H      N2            -15.5684415616      -31.2164203132       -8.4676011189  IM1H      101             0.0000000000
      2018       101  IM1H      DN2           -15.5680641340      -31.2090292121       -8.4709574016  IM1H      101             0.0000000000
      2019       101  IM1H      H7            -16.2571798899      -31.8899668645       -8.1993203735  IM1H      101             0.0000000000
      2020       101  IM1H      LPN21         -15.7812355427      -31.4095615498       -8.3814896543  IM1H      101             0.0000000000
      2021       102  IM1H      C1            -10.6214851286      -30.2737429231       10.3798323234  IM1H      102             0.0000000000
      2022       102  IM1H      DC1           -10.6298518723      -30.2759978470       10.3843183419  IM1H      102             0.0000000000
      2023       102  IM1H      H1            -10.3553393617      -30.1074678983        9.3140743549  IM1H      102             0.0000000000
      2024       102  IM1H      H2            -10.6237035630      -31.3620771049       10.6030917853  IM1H      102             0.0000000000
      2025       102  IM1H      H3             -9.8934113396      -29.7364264277       11.0244411536  IM1H      102             0.0000000000
      2026       102  IM1H      N1            -11.9417934444      -29.7069858740       10.6417616733  IM1H      102             0.0000000000
      2027       102  IM1H      DN1           -11.9548479211      -29.7072309877       10.6343085248  IM1H      102             0.0000000000
      2028       102  IM1H      C2            -13.1137561522      -30.0436427151       10.0200772964  IM1H      102             0.0000000000
      2029       102  IM1H      DC2           -13.1032996734      -30.0410719657       10.0214314218  IM1H      102             0.0000000000
      2030       102  IM1H      H4            -13.1284391339      -30.8352513782        9.2811394542  IM1H      102             0.0000000000
      2031       102  IM1H      C3            -14.1138601309      -29.2606975106       10.5466984639  IM1H      102             0.0000000000
      2032       102  IM1H      DC3           -14.1148821234      -29.2667865094       10.5376897562  IM1H      102             0.0000000000
      2033       102  IM1H      H5            -15.1784086946      -29.2226162669       10.3513137809  IM1H      102             0.0000000000
      2034       102  IM1H      C4            -12.2203798546      -28.7503386390       11.5300465334  IM1H      102             0.0000000000
      2035       102  IM1H      DC4           -12.2123323818      -28.7708601365       11.4982741678  IM1H      102             0.0000000000
      2036       102  IM1H      H6            -11.5131653302      -28.2816505307       12.2143557279  IM1H      102             0.0000000000
      2037       102  IM1H      N2            -13.5305808580      -28.4483921283       11.4877776589  IM1H      102             0.0000000000
      2038       102  IM1H      DN2           -13.5320052026      -28.4592968133       11.4692586228  IM1H      102             0.0000000000
      2039       102  IM1H      H7            -13.9474640870      -27.7808726918       12.1047267453  IM1H      102             0.0000000000
      2040       102  IM1H      LPN21         -13.6663607203      -28.2401823860       11.6557435252  IM1H      102             0.0000000000
      2041       103  IM1H      C1              7.6437385485      -21.7718529204      -35.0052566241  IM1H      103             0.0000000000
      2042       103  IM1H      DC1             7.6237358915      -21.7631372267      -35.0081362860  IM1H      103             0.0000000000
      2043       103  IM1H      H1              8.2406018054      -21.3304925342      -34.1786513601  IM1H      103             0.0000000000
      2044       103  IM1H      H2              8.3273091326      -22.2491358543      -35.7395952773  IM1H      103             0.0000000000
      2045       103  IM1H      H3              6.9414733370      -22.5422273307      -34.6209808867  IM1H      103             0.0000000000
      2046       103  IM1H      N1              6.9132432965      -20.7121272097      -35.7158280508  IM1H      103             0.0000000000
      2047       103  IM1H      DN1             6.9001034074      -20.7116479625      -35.7256302509  IM1H      103             0.0000000000
      2048       103  IM1H      C2              7.4782395149      -19.6445521867      -36.3666030940  IM1H      103             0.0000000000
      2049       103  IM1H      DC2             7.4637008272      -19.6772184210      -36.3522791384  IM1H      103             0.0000000000
      2050       103  IM1H      H4              8.5482912948      -19.4796678088      -36.3403099358  IM1H      103             0.0000000000
      2051       103  IM1H      C3              6.4834470140      -18.9697765562      -37.0368368041  IM1H      103             0.0000000000
      2052       103  IM1H      DC3             6.4865303691      -18.9887073907      -37.0075956332  IM1H      103             0.0000000000
      2053       103  IM1H      H5              6.4976657525      -18.1116064595      -37.6973145952  IM1H      103             0.0000000000
      2054       103  IM1H      C4              5.6015630021      -20.6895659737      -35.9882294495  IM1H      103             0.0000000000
      2055       103  IM1H      DC4             5.6204988145      -20.7144429168      -35.9788563970  IM1H      103             0.0000000000
      2056       103  IM1H      H6              4.8996467683      -21.4555929789      -35.6586596875  IM1H      103             0.0000000000
      2057       103  IM1H      N2              5.3111842801      -19.6354747922      -36.7854703415  IM1H      103             0.0000000000
      2058       103  IM1H      DN2             5.3152834992      -19.6530138011      -36.7586378406  IM1H      103             0.0000000000
      2059       103  IM1H      H7              4.4601600417      -19.4338814149      -37.2703598710  IM1H      103             0.0000000000
      2060       103  IM1H      LPN21           5.0384140632      -19.5630893423      -36.8872384869  IM1H      103             0.0000000000
      2061       104  IM1H      C1            -13.5349196754       22.8143892752      -18.2431823019  IM1H      104             0.0000000000
      2062       104  IM1H      DC1           -13.5405342390       22.7893113536      -18.2403655363  IM1H      104             0.0000000000
      2063       104  IM1H      H1            -14.2086829765       23.5690437858      -17.7839867168  IM1H      104             0.0000000000
      2064       104  IM1H      H2            -13.6990939245       22.7655281045      -19.3408982954  IM1H      104             0.0000000000
      2065       104  IM1H      H3            -12.4793387545       23.1004408250      -18.0476204696  IM1H      104             0.0000000000
      2066       104  IM1H      N1            -13.8170119602       21.4917910620      -17.6602040709  IM1H      104             0.0000000000
      2067       104  IM1H      DN1           -13.8188499104       21.4722988194      -17.6535817617  IM1H      104             0.0000000000
      2068       104  IM1H      C2            -15.0216168386       20.8331496572      -17.6749758678  IM1H      104             0.0000000000
      2069       104  IM1H      DC2           -15.0049761880       20.8370371616      -17.6787507947  IM1H      104             0.0000000000
      2070       104  IM1H      H4            -15.8899197943       21.2926948740      -18.1307797426  IM1H      104             0.0000000000
      2071       104  IM1H      C3            -14.8659688552       19.6341065359      -17.0186999515  IM1H      104             0.0000000000
      2072       104  IM1H      DC3           -14.8587615102       19.6378009897      -17.0262578823  IM1H      104             0.0000000000
      2073       104  IM1H      H5            -15.5668129975       18.8387024477      -16.7972528367  IM1H      104             0.0000000000
      2074       104  IM1H      C4            -12.9472801691       20.7084038000      -17.0128425375  IM1H      104             0.0000000000
      2075       104  IM1H      DC4           -12.9509574875       20.7169685826      -17.0266209757  IM1H      104             0.0000000000
      2076       104  IM1H      H6            -11.9094390081       20.9859240675      -16.8285378286  IM1H      104             0.0000000000
      2077       104  IM1H      N2            -13.5558368844       19.5700563055      -16.6110862861  IM1H      104             0.0000000000
      2078       104  IM1H      DN2           -13.5515601556       19.5715087270      -16.6169035739  IM1H      104             0.0000000000
      2079       104  IM1H      H7            -13.1489216583       18.8347313127      -16.0691295040  IM1H      104             0.0000000000
      2080       104  IM1H      LPN21         -13.4250871579       19.3460742259      -16.4602998907  IM1H      104             0.0000000000
      2081       105  IM1H      C1             21.1367373876      -10.1875617976        8.9612256590  IM1H      105             0.0000000000
      2082       105  IM1H      DC1            21.1208443562      -10.1715190597        8.9492573035  IM1H      105             0.0000000000
      2083       105  IM1H      H1             21.4469341829       -9.5073993183        9.7831003151  IM1H      105             0.0000000000
      2084       105  IM1H      H2             21.9314309082      -10.2428440590        8.1868051785  IM1H      105             0.0000000000
      2085       105  IM1H      H3             20.9592658495      -11.2048920739        9.3709377067  IM1H      105             0.0000000000
      2086       105  IM1H      N1             19.9103438495       -9.6858617609        8.3499560080  IM1H      105             0.0000000000
      2087       105  IM1H      DN1            19.8990665744       -9.6782679840        8.3395285882  IM1H      105             0.0000000000
      2088       105  IM1H      C2             19.7449172021       -8.4673639900        7.7421750449  IM1H      105             0.0000000000
      2089       105  IM1H      DC2            19.7509192134       -8.4857351721        7.7398313411  IM1H      105             0.0000000000
      2090       105  IM1H      H4             20.5544456271       -7.7484658343        7.7150057435  IM1H      105             0.0000000000
      2091       105  IM1H      C3             18.4486416333       -8.3899943883        7.2960315447  IM1H      105             0.0000000000
      2092       105  IM1H      DC3            18.4550569666       -8.3941399340        7.2969080383  IM1H      105             0.0000000000
      2093       105  IM1H      H5             17.9230917268       -7.6102021479        6.7588068622  IM1H      105             0.0000000000
      2094       105  IM1H      C4             18.7464892840      -10.3366168970        8.2751254259  IM1H      105             0.0000000000
      2095       105  IM1H      DC4            18.7727754061      -10.3210530090        8.2761101572  IM1H      105             0.0000000000
      2096       105  IM1H      H6             18.5553504283      -11.3386123895        8.6592751011  IM1H      105             0.0000000000
      2097       105  IM1H      N2             17.8367899069       -9.5717706425        7.6431534743  IM1H      105             0.0000000000
      2098       105  IM1H      DN2            17.8409850565       -9.5679913894        7.6408138996  IM1H      105             0.0000000000
      2099       105  IM1H      H7             16.8879084094       -9.8422854319        7.4805322792  IM1H      105             0.0000000000
      2100       105  IM1H      LPN21          17.5520677477       -9.6498374969        7.5898725365  IM1H      105             0.0000000000
      2101       106  IM1H      C1              0.0022248389      -18.1207685507       22.9288233501  IM1H      106             0.0000000000
      2102       106  IM1H      DC1            -0.0055814262      -18.1344007783       22.9079473953  IM1H      106             0.0000000000
      2103       106  IM1H      H1              0.5616280901      -17.1781621868       22.7474887252  IM1H      106             0.0000000000
      2104       106  IM1H      H2              0.5963131452      -18.7919818772       23.5852170997  IM1H      106             0.0000000000
      2105       106  IM1H      H3             -0.9654231275      -17.8923315804       23.4246004830  IM1H      106             0.0000000000
      2106       106  IM1H      N1             -0.2374821356      -18.7869834934       21.6404137756  IM1H      106             0.0000000000
      2107       106  IM1H      DN1            -0.2505893010      -18.7977311482       21.6236292284  IM1H      106             0.0000000000
      2108       106  IM1H      C2              0.7303795222      -19.2512696935       20.7879105958  IM1H      106             0.0000000000
      2109       106  IM1H      DC2             0.6979089084      -19.2432588600       20.7927446974  IM1H      106             0.0000000000
      2110       106  IM1H      H4              1.7786865732      -19.1691160960       21.0471250115  IM1H      106             0.0000000000
      2111       106  IM1H      C3              0.1125995778      -19.7960178090       19.6882107966  IM1H      106             0.0000000000
      2112       106  IM1H      DC3             0.1046102663      -19.7957954173       19.6890678158  IM1H      106             0.0000000000
      2113       106  IM1H      H5              0.5129937974      -20.2683698596       18.7996968633  IM1H      106             0.0000000000
      2114       106  IM1H      C4             -1.4212420866      -19.0454859582       21.0727262377  IM1H      106             0.0000000000
      2115       106  IM1H      DC4            -1.4200549708      -19.0480000494       21.0845385129  IM1H      106             0.0000000000
      2116       106  IM1H      H6             -2.3796075727      -18.7735162739       21.5150700925  IM1H      106             0.0000000000
      2117       106  IM1H      N2             -1.2377781126      -19.6599255637       19.8832601391  IM1H      106             0.0000000000
      2118       106  IM1H      DN2            -1.2420094903      -19.6628852760       19.8903060098  IM1H      106             0.0000000000
      2119       106  IM1H      H7             -1.9499369300      -19.9444806014       19.2414983069  IM1H      106             0.0000000000
      2120       106  IM1H      LPN21          -1.4557873656      -19.7492602072       19.6975418388  IM1H      106             0.0000000000
      2121       107  IM1H      C1             23.9965892538      -13.4966251333       30.0606886727  IM1H      107             0.0000000000
      2122       107  IM1H      DC1            24.0017805581      -13.5172929646       30.0636952639  IM1H      107             0.0000000000
      2123       107  IM1H      H1             23.3954344123      -14.0850438023       29.3349495133  IM1H      107             0.0000000000
      2124       107  IM1H      H2             25.0809568895      -13.5492598835       29.8246856776  IM1H      107             0.0000000000
      2125       107  IM1H      H3             23.6606484380      -12.4378581792       30.0388413120  IM1H      107             0.0000000000
      2126       107  IM1H      N1             23.7832504176      -14.0518372309       31.4013254651  IM1H      107             0.0000000000
      2127       107  IM1H      DN1            23.7805062660      -14.0684723401       31.4102227299  IM1H      107             0.0000000000
      2128       107  IM1H      C2             24.1361515217      -15.3069383032       31.8301863681  IM1H      107             0.0000000000
      2129       107  IM1H      DC2            24.1325944648      -15.3096511785       31.8290455351  IM1H      107             0.0000000000
      2130       107  IM1H      H4             24.6188272705      -15.9819675280       31.1343065888  IM1H      107             0.0000000000
      2131       107  IM1H      C3             23.7681332788      -15.4243838202       33.1518752526  IM1H      107             0.0000000000
      2132       107  IM1H      DC3            23.7802426089      -15.4448391851       33.1501135054  IM1H      107             0.0000000000
      2133       107  IM1H      H5             23.8412832228      -16.2307744057       33.8710917080  IM1H      107             0.0000000000
      2134       107  IM1H      C4             23.2138600903      -13.4230225208       32.4336860706  IM1H      107             0.0000000000
      2135       107  IM1H      DC4            23.2398514442      -13.4456078197       32.4180344687  IM1H      107             0.0000000000
      2136       107  IM1H      H6             22.8211184702      -12.4068564249       32.3981827553  IM1H      107             0.0000000000
      2137       107  IM1H      N2             23.1933520648      -14.2299386480       33.5165192983  IM1H      107             0.0000000000
      2138       107  IM1H      DN2            23.2102966461      -14.2403532454       33.5079373834  IM1H      107             0.0000000000
      2139       107  IM1H      H7             22.7762003117      -13.9931393609       34.3939647453  IM1H      107             0.0000000000
      2140       107  IM1H      LPN21          23.0825788405      -14.1577869634       33.7858210384  IM1H      107             0.0000000000
      2141       108  IM1H      C1            -20.9819853183        0.3728212811       -3.3047695844  IM1H      108             0.0000000000
      2142       108  IM1H      DC1           -20.9849337024        0.3640409494       -3.2969222012  IM1H      108             0.0000000000
      2143       108  IM1H      H1            -20.5729533914        0.5037794874       -4.3293982157  IM1H      108             0.0000000000
      2144       108  IM1H      H2            -20.5990309669        1.1752395064       -2.6385924634  IM1H      108             0.0000000000
      2145       108  IM1H      H3            -22.0926102074        0.3950573537       -3.3231792185  IM1H      108             0.0000000000
      2146       108  IM1H      N1            -20.5236624949       -0.9073861679       -2.7891833768  IM1H      108             0.0000000000
      2147       108  IM1H      DN1           -20.5243000288       -0.9143099069       -2.7802462242  IM1H      108             0.0000000000
      2148       108  IM1H      C2            -19.2156002851       -1.2677197884       -2.5992565256  IM1H      108             0.0000000000
      2149       108  IM1H      DC2           -19.2518242857       -1.2589938042       -2.5887601022  IM1H      108             0.0000000000
      2150       108  IM1H      H4            -18.4031950664       -0.6078900850       -2.8776654392  IM1H      108             0.0000000000
      2151       108  IM1H      C3            -19.2009540604       -2.5246722834       -2.0471585889  IM1H      108             0.0000000000
      2152       108  IM1H      DC3           -19.2179467786       -2.5186987862       -2.0420207162  IM1H      108             0.0000000000
      2153       108  IM1H      H5            -18.3658945153       -3.1577979447       -1.7738154838  IM1H      108             0.0000000000
      2154       108  IM1H      C4            -21.2914408867       -1.9115586972       -2.3558983561  IM1H      108             0.0000000000
      2155       108  IM1H      DC4           -21.2884429502       -1.8958513983       -2.3739262142  IM1H      108             0.0000000000
      2156       108  IM1H      H6            -22.3807051992       -1.8842475812       -2.3266176376  IM1H      108             0.0000000000
      2157       108  IM1H      N2            -20.5103507797       -2.9138732569       -1.9017646460  IM1H      108             0.0000000000
      2158       108  IM1H      DN2           -20.5200264401       -2.9180945378       -1.9032282691  IM1H      108             0.0000000000
      2159       108  IM1H      H7            -20.8304191264       -3.7708094174       -1.4977638165  IM1H      108             0.0000000000
      2160       108  IM1H      LPN21         -20.6091715091       -3.1740131644       -1.7896856919  IM1H      108             0.0000000000
      2161       109  IM1H      C1             13.4400301714        8.6225298474      -16.3768461821  IM1H      109             0.0000000000
      2162       109  IM1H      DC1            13.4552256495        8.6239364735      -16.3854053804  IM1H      109             0.0000000000
      2163       109  IM1H      H1             13.4940467933        8.5076748314      -15.2731199792  IM1H      109             0.0000000000
      2164       109  IM1H      H2             12.6057100061        8.0023252595      -16.7687353639  IM1H      109             0.0000000000
      2165       109  IM1H      H3             13.2770814693        9.6914354268      -16.6322078559  IM1H      109             0.0000000000
      2166       109  IM1H      N1             14.7003424086        8.1539483359      -16.9714943814  IM1H      109             0.0000000000
      2167       109  IM1H      DN1            14.7122273525        8.1507657898      -16.9742533954  IM1H      109             0.0000000000
      2168       109  IM1H      C2             15.2267337415        6.8980211481      -16.8155516249  IM1H      109             0.0000000000
      2169       109  IM1H      DC2            15.2312439104        6.9222466292      -16.8205135060  IM1H      109             0.0000000000
      2170       109  IM1H      H4             14.6848017666        6.1568515580      -16.2412116792  IM1H      109             0.0000000000
      2171       109  IM1H      C3             16.4002232141        6.8340887563      -17.5300078245  IM1H      109             0.0000000000
      2172       109  IM1H      DC3            16.4086394554        6.8326597583      -17.5203707898  IM1H      109             0.0000000000
      2173       109  IM1H      H5             17.1030497330        6.0230272874      -17.6752771536  IM1H      109             0.0000000000
      2174       109  IM1H      C4             15.5315481508        8.8391797732      -17.7678451763  IM1H      109             0.0000000000
      2175       109  IM1H      DC4            15.5187340256        8.8373771955      -17.7376112402  IM1H      109             0.0000000000
      2176       109  IM1H      H6             15.3774541642        9.8656024455      -18.1007288513  IM1H      109             0.0000000000
      2177       109  IM1H      N2             16.5784390213        8.0612654328      -18.1234164497  IM1H      109             0.0000000000
      2178       109  IM1H      DN2            16.5815596019        8.0620843678      -18.1028781108  IM1H      109             0.0000000000
      2179       109  IM1H      H7             17.2743249796        8.3119227143      -18.7964050530  IM1H      109             0.0000000000
      2180       109  IM1H      LPN21          16.8062073971        8.1448463767      -18.2998698224  IM1H      109             0.0000000000
      2181       110  IM1H      C1            -10.8980942752       15.5926593148       24.1322122136  IM1H      110             0.0000000000
      2182       110  IM1H      DC1           -10.9051643275       15.6051794314       24.1482930324  IM1H      110             0.0000000000
      2183       110  IM1H      H1            -10.5788004254       14.5473033700       23.9332062210  IM1H      110             0.0000000000
      2184       110  IM1H      H2            -10.0031463703       16.2463175859       24.2104433554  IM1H      110             0.0000000000
      2185       110  IM1H      H3            -11.5572233302       15.9470792839       23.3110810582  IM1H      110             0.0000000000
      2186       110  IM1H      N1            -11.6321345417       15.6263278170       25.4075424910  IM1H      110             0.0000000000
      2187       110  IM1H      DN1           -11.6418279296       15.6286966589       25.4210235739  IM1H      110             0.0000000000
      2188       110  IM1H      C2            -11.1324599339       15.2623152880       26.6322197303  IM1H      110             0.0000000000
      2189       110  IM1H      DC2           -11.1467215321       15.2696288569       26.6236401268  IM1H      110             0.0000000000
      2190       110  IM1H      H4            -10.1139726445       14.9033291891       26.7140831658  IM1H      110             0.0000000000
      2191       110  IM1H      C3            -12.1180521260       15.4549445157       27.5719943921  IM1H      110             0.0000000000
      2192       110  IM1H      DC3           -12.1234762321       15.4532361012       27.5815440043  IM1H      110             0.0000000000
      2193       110  IM1H      H5            -12.1181304143       15.3027712511       28.6442500946  IM1H      110             0.0000000000
      2194       110  IM1H      C4            -12.8915382981       16.0348729751       25.5997341019  IM1H      110             0.0000000000
      2195       110  IM1H      DC4           -12.8754520491       16.0291235183       25.5967122772  IM1H      110             0.0000000000
      2196       110  IM1H      H6            -13.5484049681       16.4098302364       24.8148562579  IM1H      110             0.0000000000
      2197       110  IM1H      N2            -13.2178890569       15.9367374254       26.9049717038  IM1H      110             0.0000000000
      2198       110  IM1H      DN2           -13.2214120477       15.9362556166       26.9101038550  IM1H      110             0.0000000000
      2199       110  IM1H      H7            -14.1081266679       16.1763307160       27.2923630447  IM1H      110             0.0000000000
      2200       110  IM1H      LPN21         -13.4838394459       16.0082893556       27.0239284685  IM1H      110             0.0000000000
      2201       111  IM1H      C1             30.0787885894      -16.2340879464      -12.1240693593  IM1H      111             0.0000000000
      2202       111  IM1H      DC1            30.0833630602      -16.2424906106      -12.1113619010  IM1H      111             0.0000000000
      2203       111  IM1H      H1             30.3879333645      -15.3094889993      -12.6568613422  IM1H      111             0.0000000000
      2204       111  IM1H      H2             29.5495197765      -15.9660533959      -11.1847328892  IM1H      111             0.0000000000
      2205       111  IM1H      H3             29.4130581162      -16.8433719958      -12.7720638687  IM1H      111             0.0000000000
      2206       111  IM1H      N1             31.2732050894      -17.0122012618      -11.8092993648  IM1H      111             0.0000000000
      2207       111  IM1H      DN1            31.2866087434      -17.0150629710      -11.7938470239  IM1H      111             0.0000000000
      2208       111  IM1H      C2             32.2562965646      -16.6251087075      -10.9427947718  IM1H      111             0.0000000000
      2209       111  IM1H      DC2            32.2556523795      -16.6237268545      -10.9420853349  IM1H      111             0.0000000000
      2210       111  IM1H      H4             32.2081946559      -15.6352692071      -10.5059962258  IM1H      111             0.0000000000
      2211       111  IM1H      C3             33.1283945529      -17.6759056237      -10.7891959667  IM1H      111             0.0000000000
      2212       111  IM1H      DC3            33.1385226586      -17.6598540796      -10.7765098980  IM1H      111             0.0000000000
      2213       111  IM1H      H5             34.0201255338      -17.8011384881      -10.1875136690  IM1H      111             0.0000000000
      2214       111  IM1H      C4             31.5451762871      -18.2629431006      -12.1968739845  IM1H      111             0.0000000000
      2215       111  IM1H      DC4            31.5355133550      -18.2347334552      -12.1746108734  IM1H      111             0.0000000000
      2216       111  IM1H      H6             30.9377187682      -18.8514371631      -12.8844567802  IM1H      111             0.0000000000
      2217       111  IM1H      N2             32.6636908127      -18.6983420778      -11.5820946680  IM1H      111             0.0000000000
      2218       111  IM1H      DN2            32.6629031054      -18.6859116879      -11.5675330707  IM1H      111             0.0000000000
      2219       111  IM1H      H7             33.0745423692      -19.5992399265      -11.7220377447  IM1H      111             0.0000000000
      2220       111  IM1H      LPN21          32.7856602393      -18.9704016596      -11.6153669226  IM1H      111             0.0000000000
      2221       112  IM1H      C1            -33.8817977251       24.3839426494       28.2907833993  IM1H      112             0.0000000000
      2222       112  IM1H      DC1           -33.8653735994       24.3924996298       28.2859957475  IM1H      112             0.0000000000
      2223       112  IM1H      H1            -34.3928797805       24.4283374283       27.3053163850  IM1H      112             0.0000000000
      2224       112  IM1H      H2            -34.4641200801       24.9564056761       29.0441145079  IM1H      112             0.0000000000
      2225       112  IM1H      H3            -33.7834149044       23.3267919649       28.6180054207  IM1H      112             0.0000000000
      2226       112  IM1H      N1            -32.5450524573       24.9780413856       28.1641095186  IM1H      112             0.0000000000
      2227       112  IM1H      DN1           -32.5305890698       24.9870930907       28.1613146766  IM1H      112             0.0000000000
      2228       112  IM1H      C2            -32.2764258620       26.2511024661       27.7372908443  IM1H      112             0.0000000000
      2229       112  IM1H      DC2           -32.2730731461       26.2369564762       27.7413716599  IM1H      112             0.0000000000
      2230       112  IM1H      H4            -33.0886362018       26.9232701549       27.4895127945  IM1H      112             0.0000000000
      2231       112  IM1H      C3            -30.9121177033       26.4335221570       27.7619560535  IM1H      112             0.0000000000
      2232       112  IM1H      DC3           -30.9124223169       26.4332385792       27.7607877424  IM1H      112             0.0000000000
      2233       112  IM1H      H5            -30.3101475763       27.3022329596       27.5256035464  IM1H      112             0.0000000000
      2234       112  IM1H      C4            -31.3725019349       24.3954941352       28.4442235742  IM1H      112             0.0000000000
      2235       112  IM1H      DC4           -31.3901709417       24.4148897168       28.4361115489  IM1H      112             0.0000000000
      2236       112  IM1H      H6            -31.2654004536       23.3671420222       28.7893629727  IM1H      112             0.0000000000
      2237       112  IM1H      N2            -30.3599478816       25.2595686245       28.2114129560  IM1H      112             0.0000000000
      2238       112  IM1H      DN2           -30.3590150563       25.2623700933       28.2059252853  IM1H      112             0.0000000000
      2239       112  IM1H      H7            -29.3920199466       25.0778132958       28.3848503027  IM1H      112             0.0000000000
      2240       112  IM1H      LPN21         -30.0683524523       25.2017701295       28.2518040387  IM1H      112             0.0000000000
      2241       113  IM1H      C1             16.0309376821      -21.8349106791       22.6948216857  IM1H      113             0.0000000000
      2242       113  IM1H      DC1            16.0470384234      -21.8658158168       22.6934227578  IM1H      113             0.0000000000
      2243       113  IM1H      H1             16.7526217930      -21.5230043485       21.9098328415  IM1H      113             0.0000000000
      2244       113  IM1H      H2             16.5257653394      -22.0400644584       23.6681553985  IM1H      113             0.0000000000
      2245       113  IM1H      H3             15.2843703243      -21.0317846267       22.8735581559  IM1H      113             0.0000000000
      2246       113  IM1H      N1             15.3176883258      -23.0223364384       22.2452323902  IM1H      113             0.0000000000
      2247       113  IM1H      DN1            15.3081535554      -23.0346662267       22.2421300237  IM1H      113             0.0000000000
      2248       113  IM1H      C2             15.8535520242      -24.2727579315       22.1836233554  IM1H      113             0.0000000000
      2249       113  IM1H      DC2            15.8357315995      -24.2478029185       22.1888496881  IM1H      113             0.0000000000
      2250       113  IM1H      H4             16.8858050611      -24.4593541478       22.4529271241  IM1H      113             0.0000000000
      2251       113  IM1H      C3             14.8954972457      -25.1280951398       21.7064239759  IM1H      113             0.0000000000
      2252       113  IM1H      DC3            14.8836674995      -25.1221638469       21.7112447223  IM1H      113             0.0000000000
      2253       113  IM1H      H5             14.9538637553      -26.1944950722       21.5267756117  IM1H      113             0.0000000000
      2254       113  IM1H      C4             14.0500078259      -23.1045169423       21.8277450559  IM1H      113             0.0000000000
      2255       113  IM1H      DC4            14.0640743713      -23.1129555827       21.8339086342  IM1H      113             0.0000000000
      2256       113  IM1H      H6             13.3710149669      -22.2520018367       21.8108130719  IM1H      113             0.0000000000
      2257       113  IM1H      N2             13.7625050104      -24.3812772930       21.4968737974  IM1H      113             0.0000000000
      2258       113  IM1H      DN2            13.7545478499      -24.3844995898       21.4958628347  IM1H      113             0.0000000000
      2259       113  IM1H      H7             12.8714772598      -24.7308357782       21.2072560956  IM1H      113             0.0000000000
      2260       113  IM1H      LPN21          13.4977256802      -24.4800024563       21.3961501732  IM1H      113             0.0000000000
      2261       114  IM1H      C1            -19.4146479486      -19.1750274455       10.8822587479  IM1H      114             0.0000000000
      2262       114  IM1H      DC1           -19.3859978856      -19.1370644162       10.8445255366  IM1H      114             0.0000000000
      2263       114  IM1H      H1            -19.3982988507      -20.0469062796       10.1938685928  IM1H      114             0.0000000000
      2264       114  IM1H      H2            -20.4536580927      -18.8017115527       11.0064125485  IM1H      114             0.0000000000
      2265       114  IM1H      H3            -19.0186833152      -19.4954913713       11.8695965230  IM1H      114             0.0000000000
      2266       114  IM1H      N1            -18.5786822014      -18.1042713988       10.3681720480  IM1H      114             0.0000000000
      2267       114  IM1H      DN1           -18.5515888953      -18.0717329649       10.3474979019  IM1H      114             0.0000000000
      2268       114  IM1H      C2            -18.6848891983      -17.5003239932        9.1424156889  IM1H      114             0.0000000000
      2269       114  IM1H      DC2           -18.6609453086      -17.4844992178        9.1486900368  IM1H      114             0.0000000000
      2270       114  IM1H      H4            -19.4755896555      -17.7997624265        8.4656451135  IM1H      114             0.0000000000
      2271       114  IM1H      C3            -17.6947804977      -16.5533618855        9.0534240169  IM1H      114             0.0000000000
      2272       114  IM1H      DC3           -17.6777249448      -16.5295893911        9.0389511093  IM1H      114             0.0000000000
      2273       114  IM1H      H5            -17.4474501835      -15.8812781305        8.2410077800  IM1H      114             0.0000000000
      2274       114  IM1H      C4            -17.5616469067      -17.5356638581       11.0189638824  IM1H      114             0.0000000000
      2275       114  IM1H      DC4           -17.5472226173      -17.5243906444       10.9805674594  IM1H      114             0.0000000000
      2276       114  IM1H      H6            -17.3117027013      -17.8016947755       12.0460254410  IM1H      114             0.0000000000
      2277       114  IM1H      N2            -16.9958232619      -16.5919801684       10.2394318136  IM1H      114             0.0000000000
      2278       114  IM1H      DN2           -16.9776985962      -16.5732251358       10.2218808248  IM1H      114             0.0000000000
      2279       114  IM1H      H7            -16.2412588665      -16.0079289632       10.5386253343  IM1H      114             0.0000000000
      2280       114  IM1H      LPN21         -16.7597801394      -16.4230955367       10.3153371857  IM1H      114             0.0000000000
      2281       115  IM1H      C1             -6.1370968351       20.7309792839       15.5838883293  IM1H      115             0.0000000000
      2282       115  IM1H      DC1            -6.1421276111       20.7175252675       15.5928392790  IM1H      115             0.0000000000
      2283       115  IM1H      H1             -6.8829765046       21.0285968123       16.3516176604  IM1H      115             0.0000000000
      2284       115  IM1H      H2             -6.5463021108       20.8958132332       14.5642306360  IM1H      115             0.0000000000
      2285       115  IM1H      H3             -5.2200158278       21.3415486565       15.7270262653  IM1H      115             0.0000000000
      2286       115  IM1H      N1             -5.8192046621       19.3009832898       15.7410651507  IM1H      115             0.0000000000
      2287       115  IM1H      DN1            -5.8110041729       19.2876951921       15.7478708584  IM1H      115             0.0000000000
      2288       115  IM1H      C2             -6.7376449354       18.2879139117       15.7303152101  IM1H      115             0.0000000000
      2289       115  IM1H      DC2            -6.7188658169       18.3022553734       15.7488359285  IM1H      115             0.0000000000
      2290       115  IM1H      H4             -7.7771256792       18.5039766649       15.5165731463  IM1H      115             0.0000000000
      2291       115  IM1H      C3             -6.0710732324       17.0929137734       15.8553476964  IM1H      115             0.0000000000
      2292       115  IM1H      DC3            -6.0692124491       17.0967747757       15.8601232391  IM1H      115             0.0000000000
      2293       115  IM1H      H5             -6.4354002403       16.0731067924       15.8431594702  IM1H      115             0.0000000000
      2294       115  IM1H      C4             -4.6137054625       18.7351863981       15.8819038419  IM1H      115             0.0000000000
      2295       115  IM1H      DC4            -4.6193843329       18.7476839744       15.8855774241  IM1H      115             0.0000000000
      2296       115  IM1H      H6             -3.6892913263       19.3124778752       15.8990226985  IM1H      115             0.0000000000
      2297       115  IM1H      N2             -4.7333282630       17.3879227407       15.9593119003  IM1H      115             0.0000000000
      2298       115  IM1H      DN2            -4.7366349123       17.3987621533       15.9613061705  IM1H      115             0.0000000000
      2299       115  IM1H      H7             -3.9959753146       16.7156665709       16.0255106292  IM1H      115             0.0000000000
      2300       115  IM1H      LPN21          -4.5076968849       17.1930839930       15.9929027266  IM1H      115             0.0000000000
      2301       116  IM1H      C1            -12.2104104015      -35.4606867480      -22.2417326146  IM1H      116             0.0000000000
      2302       116  IM1H      DC1           -12.2345569821      -35.4510687493      -22.2547019778  IM1H      116             0.0000000000
      2303       116  IM1H      H1            -11.7546578563      -36.3029749977      -22.8049032125  IM1H      116             0.0000000000
      2304       116  IM1H      H2            -12.1009782460      -35.6580243697      -21.1538891210  IM1H      116             0.0000000000
      2305       116  IM1H      H3            -11.7070192479      -34.5084441564      -22.5140419873  IM1H      116             0.0000000000
      2306       116  IM1H      N1            -13.6393719174      -35.3882536802      -22.5645213344  IM1H      116             0.0000000000
      2307       116  IM1H      DN1           -13.6579923298      -35.3791934690      -22.5809026431  IM1H      116             0.0000000000
      2308       116  IM1H      C2            -14.5347792796      -36.3621508591      -22.2542284841  IM1H      116             0.0000000000
      2309       116  IM1H      DC2           -14.5243286607      -36.3418093409      -22.2755166162  IM1H      116             0.0000000000
      2310       116  IM1H      H4            -14.2273175478      -37.2034775320      -21.6455202512  IM1H      116             0.0000000000
      2311       116  IM1H      C3            -15.7337792158      -36.0693325280      -22.8505040131  IM1H      116             0.0000000000
      2312       116  IM1H      DC3           -15.7423804231      -36.0503780292      -22.8506687146  IM1H      116             0.0000000000
      2313       116  IM1H      H5            -16.6440098759      -36.6540311811      -22.9004703051  IM1H      116             0.0000000000
      2314       116  IM1H      C4            -14.2892738470      -34.4867654476      -23.3084776598  IM1H      116             0.0000000000
      2315       116  IM1H      DC4           -14.2815168545      -34.4879947168      -23.3109823973  IM1H      116             0.0000000000
      2316       116  IM1H      H6            -13.8454070668      -33.5589184109      -23.6692853067  IM1H      116             0.0000000000
      2317       116  IM1H      N2            -15.5722234668      -34.8743879270      -23.4924137922  IM1H      116             0.0000000000
      2318       116  IM1H      DN2           -15.5736994944      -34.8650773858      -23.4982571819  IM1H      116             0.0000000000
      2319       116  IM1H      H7            -16.2826624982      -34.3881679490      -24.0012030567  IM1H      116             0.0000000000
      2320       116  IM1H      LPN21         -15.7811756127      -34.7238948863      -23.6463320999  IM1H      116             0.0000000000
      2321       117  IM1H      C1             27.7052621161       24.2355311218        5.7466458288  IM1H      117             0.0000000000
      2322       117  IM1H      DC1            27.7103747385       24.2532142313        5.7595341633  IM1H      117             0.0000000000
      2323       117  IM1H      H1             28.2700052820       23.8018792798        6.5994835838  IM1H      117             0.0000000000
      2324       117  IM1H      H2             27.9917954210       23.7220124746        4.8040333603  IM1H      117             0.0000000000
      2325       117  IM1H      H3             26.6118183002       24.1253469472        5.9096215014  IM1H      117             0.0000000000
      2326       117  IM1H      N1             28.0329761763       25.6611112181        5.6298810554  IM1H      117             0.0000000000
      2327       117  IM1H      DN1            28.0394783236       25.6763656227        5.6311688235  IM1H      117             0.0000000000
      2328       117  IM1H      C2             29.2792588016       26.1912673474        5.4116624080  IM1H      117             0.0000000000
      2329       117  IM1H      DC2            29.2663961017       26.1896430585        5.4178498404  IM1H      117             0.0000000000
      2330       117  IM1H      H4             30.1313399450       25.5314355846        5.3045700663  IM1H      117             0.0000000000
      2331       117  IM1H      C3             29.1580675672       27.5599820726        5.3395687267  IM1H      117             0.0000000000
      2332       117  IM1H      DC3            29.1577728707       27.5597871321        5.3424580556  IM1H      117             0.0000000000
      2333       117  IM1H      H5             29.8962915442       28.3325353670        5.1632855254  IM1H      117             0.0000000000
      2334       117  IM1H      C4             27.1717968641       26.6804229540        5.6921786011  IM1H      117             0.0000000000
      2335       117  IM1H      DC4            27.1932700230       26.6624747858        5.6972038589  IM1H      117             0.0000000000
      2336       117  IM1H      H6             26.0948289518       26.5799381506        5.8268742590  IM1H      117             0.0000000000
      2337       117  IM1H      N2             27.8259651412       27.8477825279        5.5259367440  IM1H      117             0.0000000000
      2338       117  IM1H      DN2            27.8358443247       27.8504649480        5.5299053875  IM1H      117             0.0000000000
      2339       117  IM1H      H7             27.3522995133       28.7256555339        5.4553686320  IM1H      117             0.0000000000
      2340       117  IM1H      LPN21          27.6992377012       28.1196757958        5.5297059418  IM1H      117             0.0000000000
      2341       118  IM1H      C1            -31.3840523776      -35.8011462542       19.0302554332  IM1H      118             0.0000000000
      2342       118  IM1H      DC1           -31.3920978799      -35.8152632549       19.0257790071  IM1H      118             0.0000000000
      2343       118  IM1H      H1            -31.4422598025      -34.8223873018       19.5527148199  IM1H      118             0.0000000000
      2344       118  IM1H      H2            -30.3943172753      -35.8908344615       18.5335649323  IM1H      118             0.0000000000
      2345       118  IM1H      H3            -31.5360394989      -36.6156066198       19.7704413745  IM1H      118             0.0000000000
      2346       118  IM1H      N1            -32.4470980828      -35.8531664422       18.0109265458  IM1H      118             0.0000000000
      2347       118  IM1H      DN1           -32.4551395272      -35.8632043511       18.0029725462  IM1H      118             0.0000000000
      2348       118  IM1H      C2            -32.6206302478      -34.9431684811       17.0020700734  IM1H      118             0.0000000000
      2349       118  IM1H      DC2           -32.6199013580      -34.9698863602       17.0123299347  IM1H      118             0.0000000000
      2350       118  IM1H      H4            -31.9436932596      -34.1022829434       16.9151400644  IM1H      118             0.0000000000
      2351       118  IM1H      C3            -33.7387158367      -35.3043712316       16.2864153998  IM1H      118             0.0000000000
      2352       118  IM1H      DC3           -33.7287352390      -35.3144364954       16.2859210965  IM1H      118             0.0000000000
      2353       118  IM1H      H5            -34.2404188791      -34.8467679282       15.4427435003  IM1H      118             0.0000000000
      2354       118  IM1H      C4            -33.4411232798      -36.7479350075       17.9150839198  IM1H      118             0.0000000000
      2355       118  IM1H      DC4           -33.4250657186      -36.7484448065       17.9255984430  IM1H      118             0.0000000000
      2356       118  IM1H      H6            -33.5941668853      -37.5724895708       18.6113506985  IM1H      118             0.0000000000
      2357       118  IM1H      N2            -34.2404296455      -36.4400123915       16.8702608655  IM1H      118             0.0000000000
      2358       118  IM1H      DN2           -34.2348533646      -36.4464753916       16.8771226962  IM1H      118             0.0000000000
      2359       118  IM1H      H7            -35.0725347377      -36.9144371245       16.5829939370  IM1H      118             0.0000000000
      2360       118  IM1H      LPN21         -34.4829335155      -36.5943340626       16.7843731782  IM1H      118             0.0000000000
      2361       119  IM1H      C1             -0.6977485670       -3.1187586149       12.2049473089  IM1H      119             0.0000000000
      2362       119  IM1H      DC1            -0.7057366458       -3.1159247109       12.2060815112  IM1H      119             0.0000000000
      2363       119  IM1H      H1              0.0503999514       -2.7753215234       11.4588603449  IM1H      119             0.0000000000
      2364       119  IM1H      H2             -1.1992687103       -4.0414992905       11.8425273986  IM1H      119             0.0000000000
      2365       119  IM1H      H3             -0.2014213613       -3.3054103416       13.1812369364  IM1H      119             0.0000000000
      2366       119  IM1H      N1             -1.7021482075       -2.0669324137       12.3553501752  IM1H      119             0.0000000000
      2367       119  IM1H      DN1            -1.7083118675       -2.0608092422       12.3547367472  IM1H      119             0.0000000000
      2368       119  IM1H      C2             -2.4831055971       -1.5799512203       11.3419928080  IM1H      119             0.0000000000
      2369       119  IM1H      DC2            -2.4691460080       -1.5892424446       11.3528509923  IM1H      119             0.0000000000
      2370       119  IM1H      H4             -2.3983525272       -1.9874041763       10.3421488172  IM1H      119             0.0000000000
      2371       119  IM1H      C3             -3.2896687201       -0.5990075605       11.8599647349  IM1H      119             0.0000000000
      2372       119  IM1H      DC3            -3.2755749002       -0.6105599465       11.8533576521  IM1H      119             0.0000000000
      2373       119  IM1H      H5             -4.0551290732        0.0316194579       11.4249141500  IM1H      119             0.0000000000
      2374       119  IM1H      C4             -2.0288280245       -1.4057033178       13.4714588703  IM1H      119             0.0000000000
      2375       119  IM1H      DC4            -2.0137643742       -1.4252553644       13.4541288388  IM1H      119             0.0000000000
      2376       119  IM1H      H6             -1.5843703463       -1.5685290897       14.4533168745  IM1H      119             0.0000000000
      2377       119  IM1H      N2             -2.9938543184       -0.5061157510       13.1953259766  IM1H      119             0.0000000000
      2378       119  IM1H      DN2            -2.9785969758       -0.5145329143       13.1926727634  IM1H      119             0.0000000000
      2379       119  IM1H      H7             -3.4842222129        0.0869588590       13.8339196149  IM1H      119             0.0000000000
      2380       119  IM1H      LPN21          -3.1194281703       -0.3198572726       13.3941701038  IM1H      119             0.0000000000
      2381       120  IM1H      C1             -1.9673482670        5.8017988811       18.9421451543  IM1H      120             0.0000000000
      2382       120  IM1H      DC1            -1.9912768621        5.8036785301       18.9328730872  IM1H      120             0.0000000000
      2383       120  IM1H      H1             -1.1867382281        6.0139171564       18.1805843852  IM1H      120             0.0000000000
      2384       120  IM1H      H2             -2.8292101366        5.2617622611       18.4950707010  IM1H      120             0.0000000000
      2385       120  IM1H      H3             -1.5086642244        5.2089055426       19.7621496907  IM1H      120             0.0000000000
      2386       120  IM1H      N1             -2.4420926529        7.0716478357       19.4924226391  IM1H      120             0.0000000000
      2387       120  IM1H      DN1            -2.4550732595        7.0794988280       19.4923990462  IM1H      120             0.0000000000
      2388       120  IM1H      C2             -2.9794851455        8.1086770007       18.7759398174  IM1H      120             0.0000000000
      2389       120  IM1H      DC2            -2.9767667954        8.0984302126       18.7872532391  IM1H      120             0.0000000000
      2390       120  IM1H      H4             -3.1477814375        8.0132828462       17.7103576698  IM1H      120             0.0000000000
      2391       120  IM1H      C3             -3.1561949216        9.1702936741       19.6285480074  IM1H      120             0.0000000000
      2392       120  IM1H      DC3            -3.1670783973        9.1792459436       19.6283858324  IM1H      120             0.0000000000
      2393       120  IM1H      H5             -3.5240033636       10.1716600817       19.4418095065  IM1H      120             0.0000000000
      2394       120  IM1H      C4             -2.3053451659        7.4849161973       20.7555043971  IM1H      120             0.0000000000
      2395       120  IM1H      DC4            -2.3267852989        7.4796519634       20.7357506646  IM1H      120             0.0000000000
      2396       120  IM1H      H6             -1.8221075137        6.8994547338       21.5376912330  IM1H      120             0.0000000000
      2397       120  IM1H      N2             -2.7338950149        8.7603129983       20.8695184978  IM1H      120             0.0000000000
      2398       120  IM1H      DN2            -2.7525369958        8.7639979371       20.8686707138  IM1H      120             0.0000000000
      2399       120  IM1H      H7             -2.5417621843        9.3337756747       21.6659012790  IM1H      120             0.0000000000
      2400       120  IM1H      LPN21          -2.7350409457        8.9217523348       21.1223742422  IM1H      120             0.0000000000
      2401       121  IM1H      C1             12.3212090150      -22.1447393388      -11.7349189522  IM1H      121             0.0000000000
      2402       121  IM1H      DC1            12.3332721885      -22.1570414687      -11.7364947201  IM1H      121             0.0000000000
      2403       121  IM1H      H1             12.3106699607      -21.0358175180      -11.8020183083  IM1H      121             0.0000000000
      2404       121  IM1H      H2             13.3567348300      -22.5099342144      -11.5656854104  IM1H      121             0.0000000000
      2405       121  IM1H      H3             11.6568461577      -22.4611034119      -10.9025387701  IM1H      121             0.0000000000
      2406       121  IM1H      N1             11.8150273737      -22.7098652935      -12.9983547963  IM1H      121             0.0000000000
      2407       121  IM1H      DN1            11.8238826048      -22.7199860280      -13.0030377850  IM1H      121             0.0000000000
      2408       121  IM1H      C2             12.3620697030      -22.5200944415      -14.2419187446  IM1H      121             0.0000000000
      2409       121  IM1H      DC2            12.3771526227      -22.5419362715      -14.2208488563  IM1H      121             0.0000000000
      2410       121  IM1H      H4             13.1586053353      -21.8003592290      -14.3847515501  IM1H      121             0.0000000000
      2411       121  IM1H      C3             11.6214084215      -23.2424030772      -15.1482017901  IM1H      121             0.0000000000
      2412       121  IM1H      DC3            11.6478565139      -23.2605430822      -15.1463414160  IM1H      121             0.0000000000
      2413       121  IM1H      H5             11.6525544518      -23.2846546022      -16.2299289903  IM1H      121             0.0000000000
      2414       121  IM1H      C4             10.7534649174      -23.5120062244      -13.1486062357  IM1H      121             0.0000000000
      2415       121  IM1H      DC4            10.7840526030      -23.5074365765      -13.1325635414  IM1H      121             0.0000000000
      2416       121  IM1H      H6             10.0656526691      -23.7901813749      -12.3500870453  IM1H      121             0.0000000000
      2417       121  IM1H      N2             10.6246553654      -23.8736823202      -14.4428601662  IM1H      121             0.0000000000
      2418       121  IM1H      DN2            10.6398370253      -23.8810076775      -14.4356393505  IM1H      121             0.0000000000
      2419       121  IM1H      H7              9.8394477541      -24.3525698703      -14.8354359213  IM1H      121             0.0000000000
      2420       121  IM1H      LPN21          10.4152087596      -24.0584413236      -14.5523874688  IM1H      121             0.0000000000
      2421       122  IM1H      C1             24.5781664088       29.2363079119       14.9202902222  IM1H      122             0.0000000000
      2422       122  IM1H      DC1            24.5945978290       29.2244661778       14.9017761365  IM1H      122             0.0000000000
      2423       122  IM1H      H1             23.5380910029       29.1011909521       14.5538102658  IM1H      122             0.0000000000
      2424       122  IM1H      H2             24.5844272590       29.2592344399       16.0310359970  IM1H      122             0.0000000000
      2425       122  IM1H      H3             25.2221842344       28.4091634781       14.5523308114  IM1H      122             0.0000000000
      2426       122  IM1H      N1             25.0686516084       30.5328120375       14.4350124924  IM1H      122             0.0000000000
      2427       122  IM1H      DN1            25.0780483370       30.5314645630       14.4245706974  IM1H      122             0.0000000000
      2428       122  IM1H      C2             24.5229801995       31.7632005176       14.6988092438  IM1H      122             0.0000000000
      2429       122  IM1H      DC2            24.5477441446       31.7376973461       14.6901527226  IM1H      122             0.0000000000
      2430       122  IM1H      H4             23.6298187994       31.8508730074       15.3049983628  IM1H      122             0.0000000000
      2431       122  IM1H      C3             25.2788836587       32.7132650877       14.0521632904  IM1H      122             0.0000000000
      2432       122  IM1H      DC3            25.2928877376       32.7009283480       14.0560883915  IM1H      122             0.0000000000
      2433       122  IM1H      H5             25.1697041176       33.7889461856       13.9898816444  IM1H      122             0.0000000000
      2434       122  IM1H      C4             26.1281842286       30.7285117671       13.6431720965  IM1H      122             0.0000000000
      2435       122  IM1H      DC4            26.1179528377       30.7016968655       13.6486249663  IM1H      122             0.0000000000
      2436       122  IM1H      H6             26.7633284906       29.9314126026       13.2567465687  IM1H      122             0.0000000000
      2437       122  IM1H      N2             26.2838820399       32.0464703293       13.3940886450  IM1H      122             0.0000000000
      2438       122  IM1H      DN2            26.2868064686       32.0298444883       13.3965047708  IM1H      122             0.0000000000
      2439       122  IM1H      H7             26.9837141655       32.4671761925       12.8168178484  IM1H      122             0.0000000000
      2440       122  IM1H      LPN21          26.5000942612       32.1677091891       13.2251110895  IM1H      122             0.0000000000
      2441       123  IM1H      C1            -18.6769313973       -9.3758635220       -2.7456009024  IM1H      123             0.0000000000
      2442       123  IM1H      DC1           -18.6702233897       -9.3680378608       -2.7397179938  IM1H      123             0.0000000000
      2443       123  IM1H      H1            -19.6460678129       -9.0737724471       -3.1970835610  IM1H      123             0.0000000000
      2444       123  IM1H      H2            -18.6429253876       -9.1017462121       -1.6694855314  IM1H      123             0.0000000000
      2445       123  IM1H      H3            -18.5516048323      -10.4729535224       -2.8681071668  IM1H      123             0.0000000000
      2446       123  IM1H      N1            -17.5966213221       -8.6750595218       -3.4537663754  IM1H      123             0.0000000000
      2447       123  IM1H      DN1           -17.5916504824       -8.6736157506       -3.4570823860  IM1H      123             0.0000000000
      2448       123  IM1H      C2            -17.3983472647       -7.3186530578       -3.4984680221  IM1H      123             0.0000000000
      2449       123  IM1H      DC2           -17.4067943490       -7.3466118735       -3.5112924556  IM1H      123             0.0000000000
      2450       123  IM1H      H4            -18.0243985811       -6.6423764192       -2.9296106962  IM1H      123             0.0000000000
      2451       123  IM1H      C3            -16.2910724258       -7.0719629224       -4.2743674109  IM1H      123             0.0000000000
      2452       123  IM1H      DC3           -16.2987963752       -7.0773333841       -4.2753943167  IM1H      123             0.0000000000
      2453       123  IM1H      H5            -15.7911451563       -6.1491319761       -4.5414718284  IM1H      123             0.0000000000
      2454       123  IM1H      C4            -16.6330004519       -9.2398246652       -4.1889492512  IM1H      123             0.0000000000
      2455       123  IM1H      DC4           -16.6530300678       -9.2373668000       -4.1792097114  IM1H      123             0.0000000000
      2456       123  IM1H      H6            -16.5174088453      -10.3164471262       -4.3139398787  IM1H      123             0.0000000000
      2457       123  IM1H      N2            -15.8219064242       -8.2893604204       -4.7001616842  IM1H      123             0.0000000000
      2458       123  IM1H      DN2           -15.8260130098       -8.2951221487       -4.6953239654  IM1H      123             0.0000000000
      2459       123  IM1H      H7            -15.0204554761       -8.4328199770       -5.2807611446  IM1H      123             0.0000000000
      2460       123  IM1H      LPN21         -15.5831825003       -8.3391875673       -4.8748847325  IM1H      123             0.0000000000
      2461       124  IM1H      C1             24.0666249186       36.4971980066        6.2317596183  IM1H      124             0.0000000000
      2462       124  IM1H      DC1            24.0759830205       36.4929849840        6.2076739663  IM1H      124             0.0000000000
      2463       124  IM1H      H1             23.7535138172       37.0316666100        5.3094658734  IM1H      124             0.0000000000
      2464       124  IM1H      H2             24.2780831602       37.1973492842        7.0680577715  IM1H      124             0.0000000000
      2465       124  IM1H      H3             23.3136416950       35.7536046735        6.5699995035  IM1H      124             0.0000000000
      2466       124  IM1H      N1             25.3538479661       35.8832960912        6.0390115247  IM1H      124             0.0000000000
      2467       124  IM1H      DN1            25.3636861702       35.8710836022        6.0351540559  IM1H      124             0.0000000000
      2468       124  IM1H      C2             26.5049149241       36.5476653769        5.7123437510  IM1H      124             0.0000000000
      2469       124  IM1H      DC2            26.4774712329       36.5297763553        5.7129144408  IM1H      124             0.0000000000
      2470       124  IM1H      H4             26.4991937383       37.6031614821        5.4698891370  IM1H      124             0.0000000000
      2471       124  IM1H      C3             27.5408379443       35.6519134587        5.7675141963  IM1H      124             0.0000000000
      2472       124  IM1H      DC3            27.5178112009       35.6377561538        5.7638303026  IM1H      124             0.0000000000
      2473       124  IM1H      H5             28.6011343836       35.7803532087        5.5881718101  IM1H      124             0.0000000000
      2474       124  IM1H      C4             25.6750590206       34.6298799865        6.3419265816  IM1H      124             0.0000000000
      2475       124  IM1H      DC4            25.6700045223       34.6386359268        6.3364780314  IM1H      124             0.0000000000
      2476       124  IM1H      H6             24.9570079837       33.9083626565        6.7316899084  IM1H      124             0.0000000000
      2477       124  IM1H      N2             26.9992232492       34.4549437064        6.1598451954  IM1H      124             0.0000000000
      2478       124  IM1H      DN2            26.9921277980       34.4371579038        6.1531153832  IM1H      124             0.0000000000
      2479       124  IM1H      H7             27.5417433541       33.6603966060        6.4325480394  IM1H      124             0.0000000000
      2480       124  IM1H      LPN21          27.1465203015       34.1966117527        6.1994454492  IM1H      124             0.0000000000
      2481       125  IM1H      C1             36.5416756689       14.0699665527       17.9247067462  IM1H      125             0.0000000000
      2482       125  IM1H      DC1            36.5199366442       14.0548026533       17.9194753082  IM1H      125             0.0000000000
      2483       125  IM1H      H1             37.1268360562       14.1509038138       16.9837723804  IM1H      125             0.0000000000
      2484       125  IM1H      H2             37.2538056532       14.0319910329       18.7766162171  IM1H      125             0.0000000000
      2485       125  IM1H      H3             35.8994134566       14.9757269708       17.9623672822  IM1H      125             0.0000000000
      2486       125  IM1H      N1             35.7096946560       12.8274222609       17.9039949170  IM1H      125             0.0000000000
      2487       125  IM1H      DN1            35.6942943402       12.8132355440       17.9024120066  IM1H      125             0.0000000000
      2488       125  IM1H      C2             36.0760386923       11.4895788269       17.8970390370  IM1H      125             0.0000000000
      2489       125  IM1H      DC2            36.0554794619       11.5044173125       17.8919856076  IM1H      125             0.0000000000
      2490       125  IM1H      H4             37.1097337860       11.1724793797       17.9587755255  IM1H      125             0.0000000000
      2491       125  IM1H      C3             34.9458458791       10.7195223524       17.7868586988  IM1H      125             0.0000000000
      2492       125  IM1H      DC3            34.9411756798       10.7188804764       17.7895887367  IM1H      125             0.0000000000
      2493       125  IM1H      H5             34.8127228441        9.6465478071       17.7244657294  IM1H      125             0.0000000000
      2494       125  IM1H      C4             34.3837639499       12.8462256229       17.8075610433  IM1H      125             0.0000000000
      2495       125  IM1H      DC4            34.3957057914       12.8584063789       17.8156038035  IM1H      125             0.0000000000
      2496       125  IM1H      H6             33.8091309079       13.7714971875       17.7654968211  IM1H      125             0.0000000000
      2497       125  IM1H      N2             33.8917416333       11.5908939325       17.7472201091  IM1H      125             0.0000000000
      2498       125  IM1H      DN2            33.8973926481       11.5947953670       17.7568135312  IM1H      125             0.0000000000
      2499       125  IM1H      H7             32.9350365139       11.3636883985       17.5653054043  IM1H      125             0.0000000000
      2500       125  IM1H      LPN21          33.6011443364       11.5187818793       17.7284301430  IM1H      125             0.0000000000
      2501       126  IM1H      C1            -14.0813947484      -18.3133436362        8.6069874137  IM1H      126             0.0000000000
      2502       126  IM1H      DC1           -14.0927272521      -18.2982432582        8.6015304242  IM1H      126             0.0000000000
      2503       126  IM1H      H1            -13.4518647282      -18.8848758411        7.8918902932  IM1H      126             0.0000000000
      2504       126  IM1H      H2            -14.9125801503      -18.9511654322        8.9766293814  IM1H      126             0.0000000000
      2505       126  IM1H      H3            -13.4535538387      -17.9743297718        9.4585779200  IM1H      126             0.0000000000
      2506       126  IM1H      N1            -14.6382018012      -17.1410396311        7.9128568863  IM1H      126             0.0000000000
      2507       126  IM1H      DN1           -14.6474167086      -17.1213176883        7.9102098474  IM1H      126             0.0000000000
      2508       126  IM1H      C2            -15.4744362085      -17.1642223469        6.8256825994  IM1H      126             0.0000000000
      2509       126  IM1H      DC2           -15.4689953879      -17.1554481828        6.8449905636  IM1H      126             0.0000000000
      2510       126  IM1H      H4            -15.7599861065      -18.1113487551        6.3848857952  IM1H      126             0.0000000000
      2511       126  IM1H      C3            -15.7428924279      -15.8651639533        6.4605239616  IM1H      126             0.0000000000
      2512       126  IM1H      DC3           -15.7508614090      -15.8665884424        6.4775039229  IM1H      126             0.0000000000
      2513       126  IM1H      H5            -16.3107363887      -15.4455460384        5.6393278573  IM1H      126             0.0000000000
      2514       126  IM1H      C4            -14.3989776423      -15.8563626309        8.2013419194  IM1H      126             0.0000000000
      2515       126  IM1H      DC4           -14.4206394381      -15.8636378637        8.2180236290  IM1H      126             0.0000000000
      2516       126  IM1H      H6            -13.6867353437      -15.5450860695        8.9654870695  IM1H      126             0.0000000000
      2517       126  IM1H      N2            -15.0665852559      -15.0549569417        7.3395300237  IM1H      126             0.0000000000
      2518       126  IM1H      DN2           -15.0793532528      -15.0533818691        7.3559520680  IM1H      126             0.0000000000
      2519       126  IM1H      H7            -14.9494210564      -14.0678678636        7.2303160026  IM1H      126             0.0000000000
      2520       126  IM1H      LPN21         -15.0649339695      -14.7549790035        7.3427719185  IM1H      126             0.0000000000
      2521       127  IM1H      C1            -33.1346402755       28.5416596503        5.3393410312  IM1H      127             0.0000000000
      2522       127  IM1H      DC1           -33.1317772052       28.5513087797        5.3236026719  IM1H      127             0.0000000000
      2523       127  IM1H      H1            -33.5127134409       27.5977366775        4.8916903809  IM1H      127             0.0000000000
      2524       127  IM1H      H2            -33.9717678865       29.1111538521        5.7967409848  IM1H      127             0.0000000000
      2525       127  IM1H      H3            -32.3887977100       28.3069827022        6.1286233618  IM1H      127             0.0000000000
      2526       127  IM1H      N1            -32.5333676437       29.3653941041        4.2778900336  IM1H      127             0.0000000000
      2527       127  IM1H      DN1           -32.5249617748       29.3721450043        4.2695373964  IM1H      127             0.0000000000
      2528       127  IM1H      C2            -33.1552487152       29.7998534516        3.1323820779  IM1H      127             0.0000000000
      2529       127  IM1H      DC2           -33.1457897879       29.7950811988        3.1528219361  IM1H      127             0.0000000000
      2530       127  IM1H      H4            -34.1859272531       29.5410176961        2.9235883925  IM1H      127             0.0000000000
      2531       127  IM1H      C3            -32.2487628911       30.5260407956        2.4003512628  IM1H      127             0.0000000000
      2532       127  IM1H      DC3           -32.2507169169       30.5231260299        2.4163027729  IM1H      127             0.0000000000
      2533       127  IM1H      H5            -32.3176535871       31.0040277116        1.4309846757  IM1H      127             0.0000000000
      2534       127  IM1H      C4            -31.2771288912       29.8207037302        4.2422004132  IM1H      127             0.0000000000
      2535       127  IM1H      DC4           -31.2928279029       29.8068652840        4.2508191322  IM1H      127             0.0000000000
      2536       127  IM1H      H6            -30.5330658418       29.6445578986        5.0190162372  IM1H      127             0.0000000000
      2537       127  IM1H      N2            -31.0762239128       30.5308308468        3.1149682802  IM1H      127             0.0000000000
      2538       127  IM1H      DN2           -31.0783157130       30.5265009652        3.1227888579  IM1H      127             0.0000000000
      2539       127  IM1H      H7            -30.2207306705       30.9565121628        2.8201348873  IM1H      127             0.0000000000
      2540       127  IM1H      LPN21         -30.8190676493       30.6646592554        3.0377632723  IM1H      127             0.0000000000
      2541       128  IM1H      C1             13.1488740342      -14.7980843454       31.1289249015  IM1H      128             0.0000000000
      2542       128  IM1H      DC1            13.1497623729      -14.8039279857       31.1315864690  IM1H      128             0.0000000000
      2543       128  IM1H      H1             13.7553678798      -14.1756305517       31.8210502442  IM1H      128             0.0000000000
      2544       128  IM1H      H2             13.0754101527      -14.3070196057       30.1350539432  IM1H      128             0.0000000000
      2545       128  IM1H      H3             13.5983004235      -15.8072700336       31.0111065316  IM1H      128             0.0000000000
      2546       128  IM1H      N1             11.7977811926      -14.9203544753       31.6829947996  IM1H      128             0.0000000000
      2547       128  IM1H      DN1            11.7900489109      -14.9275921164       31.6859110057  IM1H      128             0.0000000000
      2548       128  IM1H      C2             10.9410818821      -13.8757864418       31.8808462494  IM1H      128             0.0000000000
      2549       128  IM1H      DC2            10.9579639033      -13.8916874908       31.8743482967  IM1H      128             0.0000000000
      2550       128  IM1H      H4             11.2383552249      -12.8717163637       31.6045116011  IM1H      128             0.0000000000
      2551       128  IM1H      C3              9.7762056978      -14.3766863127       32.4103506599  IM1H      128             0.0000000000
      2552       128  IM1H      DC3             9.7988462879      -14.3712655977       32.4130512173  IM1H      128             0.0000000000
      2553       128  IM1H      H5              8.8266276762      -13.9048310725       32.6306759046  IM1H      128             0.0000000000
      2554       128  IM1H      C4             11.1679098006      -16.0352812786       32.0743081196  IM1H      128             0.0000000000
      2555       128  IM1H      DC4            11.1994587315      -16.0374461561       32.0680672794  IM1H      128             0.0000000000
      2556       128  IM1H      H6             11.5871927540      -17.0382069736       31.9940469500  IM1H      128             0.0000000000
      2557       128  IM1H      N2              9.9312495206      -15.7393122350       32.5288281222  IM1H      128             0.0000000000
      2558       128  IM1H      DN2             9.9605770853      -15.7347078722       32.5278665016  IM1H      128             0.0000000000
      2559       128  IM1H      H7              9.2230662973      -16.3796404727       32.8262441104  IM1H      128             0.0000000000
      2560       128  IM1H      LPN21           9.7314244793      -15.9364459897       32.6346970771  IM1H      128             0.0000000000
      2561       129  IM1H      C1             35.4483005393       -6.3727830055      -30.5570244109  IM1H      129             0.0000000000
      2562       129  IM1H      DC1            35.4485012750       -6.3637882841      -30.5587646616  IM1H      129             0.0000000000
      2563       129  IM1H      H1             34.8137689603       -6.6774760222      -31.4165899063  IM1H      129             0.0000000000
      2564       129  IM1H      H2             35.7451140081       -7.2675475115      -29.9691305047  IM1H      129             0.0000000000
      2565       129  IM1H      H3             36.3517390864       -5.8349449590      -30.9159812717  IM1H      129             0.0000000000
      2566       129  IM1H      N1             34.6578704687       -5.4876071381      -29.6939664729  IM1H      129             0.0000000000
      2567       129  IM1H      DN1            34.6512481440       -5.4761990472      -29.6906895137  IM1H      129             0.0000000000
      2568       129  IM1H      C2             33.4866782475       -5.8161012862      -29.0614851837  IM1H      129             0.0000000000
      2569       129  IM1H      DC2            33.5022211089       -5.8033511048      -29.0665039994  IM1H      129             0.0000000000
      2570       129  IM1H      H4             33.0624353160       -6.8049849194      -29.1840253605  IM1H      129             0.0000000000
      2571       129  IM1H      C3             33.0613456749       -4.7175874726      -28.3526362558  IM1H      129             0.0000000000
      2572       129  IM1H      DC3            33.0612001515       -4.7167133485      -28.3530123912  IM1H      129             0.0000000000
      2573       129  IM1H      H5             32.2002005713       -4.5670245460      -27.7133797215  IM1H      129             0.0000000000
      2574       129  IM1H      C4             34.9371065150       -4.2172662312      -29.3823813061  IM1H      129             0.0000000000
      2575       129  IM1H      DC4            34.9373815550       -4.2320056388      -29.3961421383  IM1H      129             0.0000000000
      2576       129  IM1H      H6             35.8255412394       -3.6826160187      -29.7184361986  IM1H      129             0.0000000000
      2577       129  IM1H      N2             33.9799249781       -3.7191809009      -28.5706315185  IM1H      129             0.0000000000
      2578       129  IM1H      DN2            33.9824436456       -3.7234402734      -28.5718629772  IM1H      129             0.0000000000
      2579       129  IM1H      H7             33.9587683847       -2.7949810273      -28.1893088282  IM1H      129             0.0000000000
      2580       129  IM1H      LPN21          33.9727787167       -3.4403969415      -28.4600492645  IM1H      129             0.0000000000
      2581       130  IM1H      C1            -33.5410457496      -33.2147442098       36.5420293649  IM1H      130             0.0000000000
      2582       130  IM1H      DC1           -33.5395120334      -33.2352747640       36.5384621845  IM1H      130             0.0000000000
      2583       130  IM1H      H1            -33.8786764082      -32.4222814149       37.2436911478  IM1H      130             0.0000000000
      2584       130  IM1H      H2            -33.5524958314      -32.8390234108       35.4965515905  IM1H      130             0.0000000000
      2585       130  IM1H      H3            -32.5064887331      -33.5146795594       36.8141535416  IM1H      130             0.0000000000
      2586       130  IM1H      N1            -34.4478076031      -34.3777771171       36.6596493505  IM1H      130             0.0000000000
      2587       130  IM1H      DN1           -34.4571715763      -34.3895475421       36.6613942812  IM1H      130             0.0000000000
      2588       130  IM1H      C2            -35.8158465056      -34.4242347822       36.6406647226  IM1H      130             0.0000000000
      2589       130  IM1H      DC2           -35.8035529695      -34.4423459157       36.6376724755  IM1H      130             0.0000000000
      2590       130  IM1H      H4            -36.3681589314      -33.5077440112       36.4736777444  IM1H      130             0.0000000000
      2591       130  IM1H      C3            -36.2111245686      -35.7268418460       36.8650179162  IM1H      130             0.0000000000
      2592       130  IM1H      DC3           -36.2175284500      -35.7372544804       36.8642229019  IM1H      130             0.0000000000
      2593       130  IM1H      H5            -37.1866851662      -36.1917933931       36.9356619484  IM1H      130             0.0000000000
      2594       130  IM1H      C4            -34.0452197977      -35.6268083747       36.8477685377  IM1H      130             0.0000000000
      2595       130  IM1H      DC4           -34.0531731395      -35.6132202287       36.8373848269  IM1H      130             0.0000000000
      2596       130  IM1H      H6            -32.9920465923      -35.9060593101       36.8785112512  IM1H      130             0.0000000000
      2597       130  IM1H      N2            -35.0751677671      -36.4706244645       37.0043879724  IM1H      130             0.0000000000
      2598       130  IM1H      DN2           -35.0794941116      -36.4794918797       37.0062177942  IM1H      130             0.0000000000
      2599       130  IM1H      H7            -34.9862307680      -37.4378902953       37.2420579597  IM1H      130             0.0000000000
      2600       130  IM1H      LPN21         -35.0554652171      -36.7649059546       37.0592533908  IM1H      130             0.0000000000
      2601       131  IM1H      C1              9.2070712166      -35.2192848187       19.1098782828  IM1H      131             0.0000000000
      2602       131  IM1H      DC1             9.1887650258      -35.1902884364       19.1055389756  IM1H      131             0.0000000000
      2603       131  IM1H      H1              8.9801328968      -35.4263280689       20.1775641409  IM1H      131             0.0000000000
      2604       131  IM1H      H2             10.2488193767      -35.5368707683       18.8902856212  IM1H      131             0.0000000000
      2605       131  IM1H      H3              8.4920980935      -35.7675761169       18.4598697551  IM1H      131             0.0000000000
      2606       131  IM1H      N1              9.1310028454      -33.7911624652       18.8566959923  IM1H      131             0.0000000000
      2607       131  IM1H      DN1             9.1247361698      -33.7668353706       18.8540345179  IM1H      131             0.0000000000
      2608       131  IM1H      C2              9.9050369811      -32.8399931506       19.4620284993  IM1H      131             0.0000000000
      2609       131  IM1H      DC2             9.8845570044      -32.8394609178       19.4554814807  IM1H      131             0.0000000000
      2610       131  IM1H      H4             10.6835789412      -33.1441495707       20.1506868242  IM1H      131             0.0000000000
      2611       131  IM1H      C3              9.5075025555      -31.6167068274       18.9873500268  IM1H      131             0.0000000000
      2612       131  IM1H      DC3             9.5122960612      -31.6096376546       18.9877052584  IM1H      131             0.0000000000
      2613       131  IM1H      H5              9.8539185763      -30.6096108632       19.1839273895  IM1H      131             0.0000000000
      2614       131  IM1H      C4              8.3009558461      -33.1717323674       18.0145619081  IM1H      131             0.0000000000
      2615       131  IM1H      DC4             8.3029191570      -33.1794695556       18.0222968902  IM1H      131             0.0000000000
      2616       131  IM1H      H6              7.5893272894      -33.6919490440       17.3734227604  IM1H      131             0.0000000000
      2617       131  IM1H      N2              8.5116740490      -31.8426991951       18.0727526514  IM1H      131             0.0000000000
      2618       131  IM1H      DN2             8.5138847445      -31.8467872466       18.0693014805  IM1H      131             0.0000000000
      2619       131  IM1H      H7              8.0323941380      -31.1194726057       17.5755262772  IM1H      131             0.0000000000
      2620       131  IM1H      LPN21           8.3646249470      -31.6361800614       17.9123581097  IM1H      131             0.0000000000
      2621       132  IM1H      C1             23.0922141576       -7.1561173219      -16.4040788196  IM1H      132             0.0000000000
      2622       132  IM1H      DC1            23.0841552597       -7.1771144620      -16.3752570988  IM1H      132             0.0000000000
      2623       132  IM1H      H1             23.9925548506       -7.6269163379      -16.8535851301  IM1H      132             0.0000000000
      2624       132  IM1H      H2             23.1895438999       -6.0508069039      -16.4600859878  IM1H      132             0.0000000000
      2625       132  IM1H      H3             22.1827315894       -7.4694200797      -16.9599599585  IM1H      132             0.0000000000
      2626       132  IM1H      N1             22.9896400158       -7.5272025608      -14.9886965914  IM1H      132             0.0000000000
      2627       132  IM1H      DN1            22.9800496469       -7.5427729736      -14.9654283169  IM1H      132             0.0000000000
      2628       132  IM1H      C2             23.9381996710       -7.3151876751      -14.0225394878  IM1H      132             0.0000000000
      2629       132  IM1H      DC2            23.9176129672       -7.3415860129      -14.0256450072  IM1H      132             0.0000000000
      2630       132  IM1H      H4             24.8447423446       -6.7761527832      -14.2685288497  IM1H      132             0.0000000000
      2631       132  IM1H      C3             23.4570112740       -7.7983205169      -12.8304198029  IM1H      132             0.0000000000
      2632       132  IM1H      DC3            23.4548888117       -7.8100200289      -12.8260283234  IM1H      132             0.0000000000
      2633       132  IM1H      H5             23.8807658936       -7.7988789666      -11.8337650429  IM1H      132             0.0000000000
      2634       132  IM1H      C4             21.9495419282       -8.1185011746      -14.3983257874  IM1H      132             0.0000000000
      2635       132  IM1H      DC4            21.9462319216       -8.1187510294      -14.4059808840  IM1H      132             0.0000000000
      2636       132  IM1H      H6             21.0365624214       -8.3885320106      -14.9290345284  IM1H      132             0.0000000000
      2637       132  IM1H      N2             22.2094121171       -8.3026162791      -13.0864246373  IM1H      132             0.0000000000
      2638       132  IM1H      DN2            22.2017537236       -8.3053821774      -13.0872715563  IM1H      132             0.0000000000
      2639       132  IM1H      H7             21.6169719372       -8.7514767679      -12.4174411586  IM1H      132             0.0000000000
      2640       132  IM1H      LPN21          22.0243377377       -8.4315889241      -12.8886532265  IM1H      132             0.0000000000
      2641       133  IM1H      C1             27.7545931300       36.3710734906      -14.0992277511  IM1H      133             0.0000000000
      2642       133  IM1H      DC1            27.7413291497       36.3805893951      -14.1280555456  IM1H      133             0.0000000000
      2643       133  IM1H      H1             28.1194174867       37.3420364094      -13.7011634335  IM1H      133             0.0000000000
      2644       133  IM1H      H2             28.5110819120       35.5818766749      -13.9012022237  IM1H      133             0.0000000000
      2645       133  IM1H      H3             26.7776734357       36.0804059842      -13.6571176837  IM1H      133             0.0000000000
      2646       133  IM1H      N1             27.5975079886       36.4680276661      -15.5184538243  IM1H      133             0.0000000000
      2647       133  IM1H      DN1            27.5873048335       36.4700310424      -15.5437656503  IM1H      133             0.0000000000
      2648       133  IM1H      C2             28.6234134702       36.6003761549      -16.4035311372  IM1H      133             0.0000000000
      2649       133  IM1H      DC2            28.6005205937       36.5943689785      -16.4103886334  IM1H      133             0.0000000000
      2650       133  IM1H      H4             29.5989261813       36.8906686716      -16.0334038547  IM1H      133             0.0000000000
      2651       133  IM1H      C3             28.1118685971       36.3913984964      -17.6614944637  IM1H      133             0.0000000000
      2652       133  IM1H      DC3            28.1192008299       36.3990120560      -17.6720075011  IM1H      133             0.0000000000
      2653       133  IM1H      H5             28.5614715199       36.4438924522      -18.6453595948  IM1H      133             0.0000000000
      2654       133  IM1H      C4             26.4800806962       36.2422085152      -16.2016559394  IM1H      133             0.0000000000
      2655       133  IM1H      DC4            26.4877938805       36.2475721037      -16.1903103167  IM1H      133             0.0000000000
      2656       133  IM1H      H6             25.4906902658       36.0923854333      -15.7694989999  IM1H      133             0.0000000000
      2657       133  IM1H      N2             26.7617780861       36.2100809892      -17.5128039614  IM1H      133             0.0000000000
      2658       133  IM1H      DN2            26.7698561903       36.2161895988      -17.5156209207  IM1H      133             0.0000000000
      2659       133  IM1H      H7             26.0569330205       36.0667743155      -18.2075388970  IM1H      133             0.0000000000
      2660       133  IM1H      LPN21          26.5605629534       36.1698861661      -17.7316574434  IM1H      133             0.0000000000
      2661       134  IM1H      C1              5.0584892454        8.7401261556       32.0046199774  IM1H      134             0.0000000000
      2662       134  IM1H      DC1             5.0831157673        8.7617311736       31.9958318769  IM1H      134             0.0000000000
      2663       134  IM1H      H1              4.1632035730        9.3938117868       32.0786447202  IM1H      134             0.0000000000
      2664       134  IM1H      H2              5.0499113218        8.0232445476       32.8533414749  IM1H      134             0.0000000000
      2665       134  IM1H      H3              5.0589406759        8.1889960285       31.0399561089  IM1H      134             0.0000000000
      2666       134  IM1H      N1              6.2580667695        9.5692008397       32.1066552354  IM1H      134             0.0000000000
      2667       134  IM1H      DN1             6.2791360892        9.5868391847       32.1041014463  IM1H      134             0.0000000000
      2668       134  IM1H      C2              6.5868256924       10.3313304807       33.1837870361  IM1H      134             0.0000000000
      2669       134  IM1H      DC2             6.6066523089       10.3416400911       33.1578534801  IM1H      134             0.0000000000
      2670       134  IM1H      H4              5.9127385151       10.3396419524       34.0313874117  IM1H      134             0.0000000000
      2671       134  IM1H      C3              7.7673407680       10.9888965926       32.9182338351  IM1H      134             0.0000000000
      2672       134  IM1H      DC3             7.7856290648       11.0050715330       32.9225672023  IM1H      134             0.0000000000
      2673       134  IM1H      H5              8.3329307676       11.6884773737       33.5212128423  IM1H      134             0.0000000000
      2674       134  IM1H      C4              7.2161972581        9.7471976986       31.1990549656  IM1H      134             0.0000000000
      2675       134  IM1H      DC4             7.2033676315        9.7521652961       31.2176228886  IM1H      134             0.0000000000
      2676       134  IM1H      H6              7.2690834588        9.2620889941       30.2243895899  IM1H      134             0.0000000000
      2677       134  IM1H      N2              8.1432541543       10.6079696490       31.6600649473  IM1H      134             0.0000000000
      2678       134  IM1H      DN2             8.1508853760       10.6202445058       31.6760515246  IM1H      134             0.0000000000
      2679       134  IM1H      H7              8.9232448382       10.8525125974       31.0840325876  IM1H      134             0.0000000000
      2680       134  IM1H      LPN21           8.3873830032       10.6978501731       31.5106574624  IM1H      134             0.0000000000
      2681       135  IM1H      C1             18.4881138499      -25.4759309231      -26.5574126525  IM1H      135             0.0000000000
      2682       135  IM1H      DC1            18.4481084976      -25.4960684564      -26.5640895976  IM1H      135             0.0000000000
      2683       135  IM1H      H1             18.5688803536      -24.7850422164      -25.6911156094  IM1H      135             0.0000000000
      2684       135  IM1H      H2             19.2517910479      -25.1931008444      -27.3131409671  IM1H      135             0.0000000000
      2685       135  IM1H      H3             18.6590574682      -26.5287426238      -26.2464676367  IM1H      135             0.0000000000
      2686       135  IM1H      N1             17.1925586157      -25.3123342626      -27.2020660221  IM1H      135             0.0000000000
      2687       135  IM1H      DN1            17.1631480085      -25.3185821310      -27.2114862350  IM1H      135             0.0000000000
      2688       135  IM1H      C2             16.6413903112      -24.1286648669      -27.6147492585  IM1H      135             0.0000000000
      2689       135  IM1H      DC2            16.6336115230      -24.1494570741      -27.6128078643  IM1H      135             0.0000000000
      2690       135  IM1H      H4             17.1888599580      -23.2091414344      -27.4484884906  IM1H      135             0.0000000000
      2691       135  IM1H      C3             15.4233334109      -24.4104699550      -28.1850208163  IM1H      135             0.0000000000
      2692       135  IM1H      DC3            15.4238576888      -24.4086437104      -28.1861424596  IM1H      135             0.0000000000
      2693       135  IM1H      H5             14.6518984002      -23.7778219765      -28.6063681309  IM1H      135             0.0000000000
      2694       135  IM1H      C4             16.3470244385      -26.2912681075      -27.5251063957  IM1H      135             0.0000000000
      2695       135  IM1H      DC4            16.3596372076      -26.3022220304      -27.5144586931  IM1H      135             0.0000000000
      2696       135  IM1H      H6             16.5350667953      -27.3443015306      -27.3156769758  IM1H      135             0.0000000000
      2697       135  IM1H      N2             15.2614592919      -25.7733495610      -28.1297004634  IM1H      135             0.0000000000
      2698       135  IM1H      DN2            15.2713185654      -25.7825134934      -28.1293312055  IM1H      135             0.0000000000
      2699       135  IM1H      H7             14.4243247526      -26.2575166136      -28.3842353889  IM1H      135             0.0000000000
      2700       135  IM1H      LPN21          15.0281229530      -25.9314611968      -28.2324373293  IM1H      135             0.0000000000
      2701       136  IM1H      C1            -35.1742267056      -16.7612605819       -2.6821473145  IM1H      136             0.0000000000
      2702       136  IM1H      DC1           -35.1785527934      -16.7669256346       -2.6915871965  IM1H      136             0.0000000000
      2703       136  IM1H      H1            -35.1335226542      -16.7911810146       -3.7919981822  IM1H      136             0.0000000000
      2704       136  IM1H      H2            -34.2437034774      -16.3114525299       -2.2745688091  IM1H      136             0.0000000000
      2705       136  IM1H      H3            -36.0562268993      -16.1762413098       -2.3442877127  IM1H      136             0.0000000000
      2706       136  IM1H      N1            -35.2924192149      -18.1315021666       -2.1743767065  IM1H      136             0.0000000000
      2707       136  IM1H      DN1           -35.2905297542      -18.1354623098       -2.1779472441  IM1H      136             0.0000000000
      2708       136  IM1H      C2            -34.3951850718      -19.1503285619       -2.3663635970  IM1H      136             0.0000000000
      2709       136  IM1H      DC2           -34.4176610738      -19.1401946268       -2.3733848088  IM1H      136             0.0000000000
      2710       136  IM1H      H4            -33.4642259853      -18.9618018963       -2.8866153417  IM1H      136             0.0000000000
      2711       136  IM1H      C3            -34.8574365059      -20.2642899401       -1.7049783513  IM1H      136             0.0000000000
      2712       136  IM1H      DC3           -34.8500596028      -20.2660188247       -1.7142181192  IM1H      136             0.0000000000
      2713       136  IM1H      H5            -34.4410481685      -21.2557351865       -1.5763468008  IM1H      136             0.0000000000
      2714       136  IM1H      C4            -36.2795364928      -18.6143361093       -1.4184240593  IM1H      136             0.0000000000
      2715       136  IM1H      DC4           -36.2576980795      -18.5920889418       -1.4503788972  IM1H      136             0.0000000000
      2716       136  IM1H      H6            -37.1335719678      -18.0596482199       -1.0297792951  IM1H      136             0.0000000000
      2717       136  IM1H      N2            -36.0476495351      -19.9082543906       -1.1254166600  IM1H      136             0.0000000000
      2718       136  IM1H      DN2           -36.0338075470      -19.9029389382       -1.1456064096  IM1H      136             0.0000000000
      2719       136  IM1H      H7            -36.6266845585      -20.4046828219       -0.4786730832  IM1H      136             0.0000000000
      2720       136  IM1H      LPN21         -36.2273904028      -20.0840884626       -0.9617841461  IM1H      136             0.0000000000
      2721       137  IM1H      C1            -19.8241852697      -16.7243931508      -29.6991322661  IM1H      137             0.0000000000
      2722       137  IM1H      DC1           -19.8141771388      -16.7266528028      -29.6853820820  IM1H      137             0.0000000000
      2723       137  IM1H      H1            -20.6725979632      -17.4399743122      -29.7487357286  IM1H      137             0.0000000000
      2724       137  IM1H      H2            -18.8553445499      -17.2635035755      -29.7700449566  IM1H      137             0.0000000000
      2725       137  IM1H      H3            -19.9044561309      -15.9971126969      -30.5351590190  IM1H      137             0.0000000000
      2726       137  IM1H      N1            -19.8876289993      -16.0001983756      -28.4191585409  IM1H      137             0.0000000000
      2727       137  IM1H      DN1           -19.8817384940      -16.0022624386      -28.4079160242  IM1H      137             0.0000000000
      2728       137  IM1H      C2            -19.8147239419      -16.5799674470      -27.1774602815  IM1H      137             0.0000000000
      2729       137  IM1H      DC2           -19.8010315355      -16.5787153646      -27.1928249934  IM1H      137             0.0000000000
      2730       137  IM1H      H4            -19.7592448865      -17.6573012865      -27.0817373854  IM1H      137             0.0000000000
      2731       137  IM1H      C3            -19.8959054110      -15.5836708904      -26.2326232855  IM1H      137             0.0000000000
      2732       137  IM1H      DC3           -19.8871395025      -15.6000741466      -26.2380507927  IM1H      137             0.0000000000
      2733       137  IM1H      H5            -19.9068637487      -15.6000828353      -25.1498030959  IM1H      137             0.0000000000
      2734       137  IM1H      C4            -20.0124149654      -14.6776185872      -28.2342224526  IM1H      137             0.0000000000
      2735       137  IM1H      DC4           -20.0027957273      -14.7151692966      -28.2424791839  IM1H      137             0.0000000000
      2736       137  IM1H      H6            -20.1187939925      -13.9342207497      -29.0242497677  IM1H      137             0.0000000000
      2737       137  IM1H      N2            -20.0160513859      -14.3962720313      -26.9115918209  IM1H      137             0.0000000000
      2738       137  IM1H      DN2           -20.0140971960      -14.4134206371      -26.9188689181  IM1H      137             0.0000000000
      2739       137  IM1H      H7            -20.0968350427      -13.4878298784      -26.5014615277  IM1H      137             0.0000000000
      2740       137  IM1H      LPN21         -20.0391425828      -14.1222936557      -26.7915807951  IM1H      137             0.0000000000
      2741       138  IM1H      C1            -27.7752975183        5.7172456536       -0.2975618635  IM1H      138             0.0000000000
      2742       138  IM1H      DC1           -27.7730135758        5.7076173357       -0.2811595468  IM1H      138             0.0000000000
      2743       138  IM1H      H1            -28.7423259406        5.4476283801       -0.7734647488  IM1H      138             0.0000000000
      2744       138  IM1H      H2            -27.1739861728        4.8094051102       -0.0771730806  IM1H      138             0.0000000000
      2745       138  IM1H      H3            -27.2027222511        6.3878961979       -0.9733624342  IM1H      138             0.0000000000
      2746       138  IM1H      N1            -28.0720846133        6.4110290218        0.9486609678  IM1H      138             0.0000000000
      2747       138  IM1H      DN1           -28.0702128315        6.4066332889        0.9616503808  IM1H      138             0.0000000000
      2748       138  IM1H      C2            -28.7545174323        5.8820418287        2.0109134946  IM1H      138             0.0000000000
      2749       138  IM1H      DC2           -28.7295914310        5.8615114118        1.9945600483  IM1H      138             0.0000000000
      2750       138  IM1H      H4            -29.1986452865        4.8962476536        1.9488708104  IM1H      138             0.0000000000
      2751       138  IM1H      C3            -28.8352890900        6.8442237297        2.9880266331  IM1H      138             0.0000000000
      2752       138  IM1H      DC3           -28.8281542944        6.8262006860        2.9566231879  IM1H      138             0.0000000000
      2753       138  IM1H      H5            -29.2870969535        6.8514199488        3.9722557064  IM1H      138             0.0000000000
      2754       138  IM1H      C4            -27.7402052981        7.6649242055        1.2657437772  IM1H      138             0.0000000000
      2755       138  IM1H      DC4           -27.7337232680        7.6345116790        1.2514545753  IM1H      138             0.0000000000
      2756       138  IM1H      H6            -27.2057861042        8.3415398188        0.5988948910  IM1H      138             0.0000000000
      2757       138  IM1H      N2            -28.1914326724        7.9559492904        2.5053806515  IM1H      138             0.0000000000
      2758       138  IM1H      DN2           -28.1856313862        7.9468993351        2.4898215472  IM1H      138             0.0000000000
      2759       138  IM1H      H7            -28.1072131679        8.8213839741        2.9992732342  IM1H      138             0.0000000000
      2760       138  IM1H      LPN21         -28.1554140223        8.2180715910        2.6467827602  IM1H      138             0.0000000000
      2761       139  IM1H      C1              5.7575364510      -31.5552213597      -15.1604714474  IM1H      139             0.0000000000
      2762       139  IM1H      DC1             5.7658932352      -31.5520263718      -15.1636366033  IM1H      139             0.0000000000
      2763       139  IM1H      H1              6.1939489612      -30.7933150214      -14.4797631027  IM1H      139             0.0000000000
      2764       139  IM1H      H2              5.0069870812      -31.0882530162      -15.8334775485  IM1H      139             0.0000000000
      2765       139  IM1H      H3              6.5614205989      -32.0380405923      -15.7562707994  IM1H      139             0.0000000000
      2766       139  IM1H      N1              5.0855601481      -32.5742744326      -14.3448382962  IM1H      139             0.0000000000
      2767       139  IM1H      DN1             5.0932581063      -32.5745697755      -14.3495982707  IM1H      139             0.0000000000
      2768       139  IM1H      C2              4.0501142533      -32.3514749652      -13.4796523561  IM1H      139             0.0000000000
      2769       139  IM1H      DC2             4.0757159816      -32.3474821160      -13.5137532468  IM1H      139             0.0000000000
      2770       139  IM1H      H4              3.6282387401      -31.3644225726      -13.3359943395  IM1H      139             0.0000000000
      2771       139  IM1H      C3              3.7412811905      -33.5390709884      -12.8613439795  IM1H      139             0.0000000000
      2772       139  IM1H      DC3             3.7556872737      -33.5259869382      -12.8889385314  IM1H      139             0.0000000000
      2773       139  IM1H      H5              3.0056601961      -33.8080839501      -12.1134250140  IM1H      139             0.0000000000
      2774       139  IM1H      C4              5.3886088655      -33.8756924419      -14.2705804348  IM1H      139             0.0000000000
      2775       139  IM1H      DC4             5.4076023986      -33.8445555980      -14.2896879373  IM1H      139             0.0000000000
      2776       139  IM1H      H6              6.1466541375      -34.3848311413      -14.8657654076  IM1H      139             0.0000000000
      2777       139  IM1H      N2              4.6037622448      -34.4796190475      -13.3585343561  IM1H      139             0.0000000000
      2778       139  IM1H      DN2             4.6185656260      -34.4662557264      -13.3772915021  IM1H      139             0.0000000000
      2779       139  IM1H      H7              4.5626373758      -35.4506683569      -13.1232218324  IM1H      139             0.0000000000
      2780       139  IM1H      LPN21           4.6183479339      -34.7690154745      -13.2808364430  IM1H      139             0.0000000000
      2781       140  IM1H      C1             12.5453406484      -30.6361808920      -16.9347719766  IM1H      140             0.0000000000
      2782       140  IM1H      DC1            12.5438875878      -30.6404124772      -16.9373548456  IM1H      140             0.0000000000
      2783       140  IM1H      H1             12.4284659544      -29.9009937215      -16.1100531577  IM1H      140             0.0000000000
      2784       140  IM1H      H2             12.6721104526      -30.0994888508      -17.8992470004  IM1H      140             0.0000000000
      2785       140  IM1H      H3             13.4186192041      -31.2917630400      -16.7300340663  IM1H      140             0.0000000000
      2786       140  IM1H      N1             11.3255287175      -31.4518698775      -17.0049395691  IM1H      140             0.0000000000
      2787       140  IM1H      DN1            11.3200022825      -31.4609428188      -17.0073765752  IM1H      140             0.0000000000
      2788       140  IM1H      C2             10.0672664743      -30.9779219315      -17.2657795088  IM1H      140             0.0000000000
      2789       140  IM1H      DC2            10.0812885595      -30.9971093226      -17.2637215827  IM1H      140             0.0000000000
      2790       140  IM1H      H4              9.9127942496      -29.9237878788      -17.4602756030  IM1H      140             0.0000000000
      2791       140  IM1H      C3              9.1948580120      -32.0386361633      -17.2265683755  IM1H      140             0.0000000000
      2792       140  IM1H      DC3             9.1859032503      -32.0431616334      -17.2206437036  IM1H      140             0.0000000000
      2793       140  IM1H      H5              8.1274321903      -32.0839732552      -17.4038694346  IM1H      140             0.0000000000
      2794       140  IM1H      C4             11.2218930910      -32.7710273020      -16.7996582952  IM1H      140             0.0000000000
      2795       140  IM1H      DC4            11.2267984325      -32.7546856893      -16.7990850812  IM1H      140             0.0000000000
      2796       140  IM1H      H6             12.0590385908      -33.4250863561      -16.5557440329  IM1H      140             0.0000000000
      2797       140  IM1H      N2              9.9344262502      -33.1577931536      -16.9299965413  IM1H      140             0.0000000000
      2798       140  IM1H      DN2             9.9334497547      -33.1560887272      -16.9255502943  IM1H      140             0.0000000000
      2799       140  IM1H      H7              9.6024381494      -34.0994280938      -16.8742512258  IM1H      140             0.0000000000
      2800       140  IM1H      LPN21           9.8324514250      -33.4382255933      -16.8990323398  IM1H      140             0.0000000000
      2801       141  IM1H      C1             -3.5746977364       -7.4639129597       -4.4802862231  IM1H      141             0.0000000000
      2802       141  IM1H      DC1            -3.5749629246       -7.4811715973       -4.4817433968  IM1H      141             0.0000000000
      2803       141  IM1H      H1             -3.3841784869       -8.5582913995       -4.4992400152  IM1H      141             0.0000000000
      2804       141  IM1H      H2             -4.2037636013       -7.1886320285       -3.6068919546  IM1H      141             0.0000000000
      2805       141  IM1H      H3             -2.6180493595       -6.9003830826       -4.4405500763  IM1H      141             0.0000000000
      2806       141  IM1H      N1             -4.2856541562       -7.0989548664       -5.6942524428  IM1H      141             0.0000000000
      2807       141  IM1H      DN1            -4.2859345652       -7.1131647617       -5.6983510622  IM1H      141             0.0000000000
      2808       141  IM1H      C2             -5.4986625876       -7.5963808853       -6.0877180635  IM1H      141             0.0000000000
      2809       141  IM1H      DC2            -5.4698917230       -7.6065115594       -6.0862095065  IM1H      141             0.0000000000
      2810       141  IM1H      H4             -6.0308324894       -8.3091122487       -5.4699007755  IM1H      141             0.0000000000
      2811       141  IM1H      C3             -5.8225131042       -7.0150322556       -7.2867616749  IM1H      141             0.0000000000
      2812       141  IM1H      DC3            -5.8194714935       -7.0277350526       -7.2827956587  IM1H      141             0.0000000000
      2813       141  IM1H      H5             -6.6919149582       -7.1216855721       -7.9236717848  IM1H      141             0.0000000000
      2814       141  IM1H      C4             -3.8717226519       -6.2397600812       -6.6281902338  IM1H      141             0.0000000000
      2815       141  IM1H      DC4            -3.8797631426       -6.2692650331       -6.6017574026  IM1H      141             0.0000000000
      2816       141  IM1H      H6             -2.9388939278       -5.6770488191       -6.5923209301  IM1H      141             0.0000000000
      2817       141  IM1H      N2             -4.7914624509       -6.1643104137       -7.6096336927  IM1H      141             0.0000000000
      2818       141  IM1H      DN2            -4.7926434574       -6.1736462660       -7.5995746798  IM1H      141             0.0000000000
      2819       141  IM1H      H7             -4.7199085166       -5.5951789202       -8.4287608984  IM1H      141             0.0000000000
      2820       141  IM1H      LPN21          -4.7705917181       -5.9910215842       -7.8536324510  IM1H      141             0.0000000000
      2821       142  IM1H      C1              4.7925038569        7.4956041257        1.4979897678  IM1H      142             0.0000000000
      2822       142  IM1H      DC1             4.7917813590        7.4946379127        1.5044130389  IM1H      142             0.0000000000
      2823       142  IM1H      H1              4.5833071804        6.6135166262        0.8557441800  IM1H      142             0.0000000000
      2824       142  IM1H      H2              5.6152944990        7.2731753315        2.2106341324  IM1H      142             0.0000000000
      2825       142  IM1H      H3              5.0661275745        8.3617843683        0.8583157505  IM1H      142             0.0000000000
      2826       142  IM1H      N1              3.5762903968        7.8149436113        2.2597128322  IM1H      142             0.0000000000
      2827       142  IM1H      DN1             3.5720470081        7.8153330563        2.2635290047  IM1H      142             0.0000000000
      2828       142  IM1H      C2              2.9505748774        6.9910488854        3.1601801718  IM1H      142             0.0000000000
      2829       142  IM1H      DC2             2.9695410932        7.0032803230        3.1510996118  IM1H      142             0.0000000000
      2830       142  IM1H      H4              3.3265234681        5.9940735335        3.3540662336  IM1H      142             0.0000000000
      2831       142  IM1H      C3              1.8441528198        7.6466586473        3.6441719411  IM1H      142             0.0000000000
      2832       142  IM1H      DC3             1.8560684363        7.6422587056        3.6398452105  IM1H      142             0.0000000000
      2833       142  IM1H      H5              1.0947565978        7.3642059224        4.3732225307  IM1H      142             0.0000000000
      2834       142  IM1H      C4              2.8628151342        8.9450517293        2.1952212960  IM1H      142             0.0000000000
      2835       142  IM1H      DC4             2.8940644160        8.9301445919        2.1971761900  IM1H      142             0.0000000000
      2836       142  IM1H      H6              3.0710303082        9.7780037700        1.5237026149  IM1H      142             0.0000000000
      2837       142  IM1H      N2              1.7939961767        8.8634543685        3.0136571657  IM1H      142             0.0000000000
      2838       142  IM1H      DN2             1.8092359509        8.8584386150        3.0077870041  IM1H      142             0.0000000000
      2839       142  IM1H      H7              1.1062888684        9.5726553122        3.1688753338  IM1H      142             0.0000000000
      2840       142  IM1H      LPN21           1.5848696818        9.0756683640        3.0487474671  IM1H      142             0.0000000000
      2841       143  IM1H      C1              5.4539093300       17.8506399410        0.9766206159  IM1H      143             0.0000000000
      2842       143  IM1H      DC1             5.4417628390       17.8400237884        0.9660534154  IM1H      143             0.0000000000
      2843       143  IM1H      H1              5.2210114443       18.0419815784        2.0459512258  IM1H      143             0.0000000000
      2844       143  IM1H      H2              4.8262688404       18.4929400651        0.3225266104  IM1H      143             0.0000000000
      2845       143  IM1H      H3              6.5267323706       18.0666267318        0.7849922523  IM1H      143             0.0000000000
      2846       143  IM1H      N1              5.1726463927       16.4366840251        0.6707823919  IM1H      143             0.0000000000
      2847       143  IM1H      DN1             5.1645441471       16.4221074959        0.6641990456  IM1H      143             0.0000000000
      2848       143  IM1H      C2              3.9344104023       15.8456304401        0.6934102032  IM1H      143             0.0000000000
      2849       143  IM1H      DC2             3.9453258216       15.8505370995        0.6897630096  IM1H      143             0.0000000000
      2850       143  IM1H      H4              3.0752845176       16.4075921045        1.0383606374  IM1H      143             0.0000000000
      2851       143  IM1H      C3              4.0593061031       14.5635188310        0.2112112842  IM1H      143             0.0000000000
      2852       143  IM1H      DC3             4.0562442770       14.5647655253        0.2196019923  IM1H      143             0.0000000000
      2853       143  IM1H      H5              3.3298398888       13.7796450381        0.0490079579  IM1H      143             0.0000000000
      2854       143  IM1H      C4              6.0318858287       15.5331780933        0.1805486334  IM1H      143             0.0000000000
      2855       143  IM1H      DC4             6.0161098820       15.5479922874        0.1799374653  IM1H      143             0.0000000000
      2856       143  IM1H      H6              7.0931753986       15.7282415252        0.0265528339  IM1H      143             0.0000000000
      2857       143  IM1H      N2              5.3834440573       14.3822719299       -0.1043757632  IM1H      143             0.0000000000
      2858       143  IM1H      DN2             5.3808586445       14.3828164997       -0.0974360581  IM1H      143             0.0000000000
      2859       143  IM1H      H7              5.7832930551       13.5738386603       -0.5362975473  IM1H      143             0.0000000000
      2860       143  IM1H      LPN21           5.5094038133       14.1340546528       -0.2162789501  IM1H      143             0.0000000000
      2861       144  IM1H      C1             16.5111071144       15.7534016283      -12.2828487826  IM1H      144             0.0000000000
      2862       144  IM1H      DC1            16.5137153508       15.7487084410      -12.2666455991  IM1H      144             0.0000000000
      2863       144  IM1H      H1             15.8465956420       16.4245398505      -12.8679291103  IM1H      144             0.0000000000
      2864       144  IM1H      H2             16.4889485173       14.7388818402      -12.7351535452  IM1H      144             0.0000000000
      2865       144  IM1H      H3             17.5497795876       16.1476860171      -12.2873559752  IM1H      144             0.0000000000
      2866       144  IM1H      N1             16.0065681257       15.6791969226      -10.9001724465  IM1H      144             0.0000000000
      2867       144  IM1H      DN1            16.0118062442       15.6725955825      -10.8903980603  IM1H      144             0.0000000000
      2868       144  IM1H      C2             14.7691032335       15.2203355591      -10.5337129108  IM1H      144             0.0000000000
      2869       144  IM1H      DC2            14.7986407965       15.2255031011      -10.5447562689  IM1H      144             0.0000000000
      2870       144  IM1H      H4             14.0600002061       14.8810913347      -11.2786795241  IM1H      144             0.0000000000
      2871       144  IM1H      C3             14.6701097649       15.2894195990       -9.1629400605  IM1H      144             0.0000000000
      2872       144  IM1H      DC3            14.6865556655       15.2962985481       -9.1801437400  IM1H      144             0.0000000000
      2873       144  IM1H      H5             13.8701204038       15.0124629489       -8.4875135003  IM1H      144             0.0000000000
      2874       144  IM1H      C4             16.6494325177       16.0225781134       -9.7745188897  IM1H      144             0.0000000000
      2875       144  IM1H      DC4            16.6589857618       16.0078091161       -9.8044657483  IM1H      144             0.0000000000
      2876       144  IM1H      H6             17.6422907542       16.4705525876       -9.7338815586  IM1H      144             0.0000000000
      2877       144  IM1H      N2             15.8611539900       15.7884986932       -8.7014318912  IM1H      144             0.0000000000
      2878       144  IM1H      DN2            15.8721811610       15.7899860266       -8.7144166651  IM1H      144             0.0000000000
      2879       144  IM1H      H7             16.0825494135       15.9580124462       -7.7410938487  IM1H      144             0.0000000000
      2880       144  IM1H      LPN21          15.9363182054       15.8379394129       -8.4152397251  IM1H      144             0.0000000000
      2881       145  IM1H      C1             26.3693164427      -18.0262901845       24.3371374196  IM1H      145             0.0000000000
      2882       145  IM1H      DC1            26.3743431835      -18.0095781519       24.3334011042  IM1H      145             0.0000000000
      2883       145  IM1H      H1             26.4397940859      -18.5530622698       25.3127731476  IM1H      145             0.0000000000
      2884       145  IM1H      H2             26.7501574595      -18.6918063507       23.5331664295  IM1H      145             0.0000000000
      2885       145  IM1H      H3             25.3140741441      -17.7390895753       24.1414322812  IM1H      145             0.0000000000
      2886       145  IM1H      N1             27.2095330739      -16.8233274867       24.3969970534  IM1H      145             0.0000000000
      2887       145  IM1H      DN1            27.2157528570      -16.8104252727       24.3957900144  IM1H      145             0.0000000000
      2888       145  IM1H      C2             28.5510550167      -16.8305653264       24.6713876858  IM1H      145             0.0000000000
      2889       145  IM1H      DC2            28.5343819813      -16.8108843778       24.6820257622  IM1H      145             0.0000000000
      2890       145  IM1H      H4             29.0469520464      -17.7833445366       24.8099045170  IM1H      145             0.0000000000
      2891       145  IM1H      C3             28.9963440070      -15.5277512008       24.6419888195  IM1H      145             0.0000000000
      2892       145  IM1H      DC3            29.0112544360      -15.5227023227       24.6637863958  IM1H      145             0.0000000000
      2893       145  IM1H      H5             29.9941325741      -15.1126270181       24.7125500577  IM1H      145             0.0000000000
      2894       145  IM1H      C4             26.8418966933      -15.5471868796       24.2042661564  IM1H      145             0.0000000000
      2895       145  IM1H      DC4            26.8450421969      -15.5800517886       24.2139272343  IM1H      145             0.0000000000
      2896       145  IM1H      H6             25.8466045861      -15.2036537925       23.9223465945  IM1H      145             0.0000000000
      2897       145  IM1H      N2             27.9077959015      -14.7320805634       24.3563735541  IM1H      145             0.0000000000
      2898       145  IM1H      DN2            27.9167622209      -14.7501553869       24.3593271628  IM1H      145             0.0000000000
      2899       145  IM1H      H7             27.8680354932      -13.7380622684       24.2546546314  IM1H      145             0.0000000000
      2900       145  IM1H      LPN21          27.9035411698      -14.4331366835       24.3315853724  IM1H      145             0.0000000000
      2901       146  IM1H      C1              5.1572542789       -0.0340337081        2.0839875656  IM1H      146             0.0000000000
      2902       146  IM1H      DC1             5.1667584881       -0.0297790512        2.0921162857  IM1H      146             0.0000000000
      2903       146  IM1H      H1              5.0210448815        0.7622226021        2.8467089358  IM1H      146             0.0000000000
      2904       146  IM1H      H2              5.2692273966        0.4025764413        1.0685297379  IM1H      146             0.0000000000
      2905       146  IM1H      H3              6.0405420330       -0.6588576461        2.3364133776  IM1H      146             0.0000000000
      2906       146  IM1H      N1              3.9613143364       -0.8713743836        2.0693856700  IM1H      146             0.0000000000
      2907       146  IM1H      DN1             3.9642413912       -0.8785725298        2.0727970972  IM1H      146             0.0000000000
      2908       146  IM1H      C2              2.6800957010       -0.4370119177        1.8704961078  IM1H      146             0.0000000000
      2909       146  IM1H      DC2             2.7147512273       -0.4458577797        1.8781438968  IM1H      146             0.0000000000
      2910       146  IM1H      H4              2.4703417782        0.6106527170        1.6936031878  IM1H      146             0.0000000000
      2911       146  IM1H      C3              1.8508280557       -1.5348910387        1.8709007134  IM1H      146             0.0000000000
      2912       146  IM1H      DC3             1.8822053933       -1.5322582563        1.8882993154  IM1H      146             0.0000000000
      2913       146  IM1H      H5              0.7898587802       -1.6376206685        1.6793809504  IM1H      146             0.0000000000
      2914       146  IM1H      C4              3.9163591395       -2.2007599985        2.1765563557  IM1H      146             0.0000000000
      2915       146  IM1H      DC4             3.9377753203       -2.1885491367        2.1778176052  IM1H      146             0.0000000000
      2916       146  IM1H      H6              4.7917202998       -2.8230061218        2.3627084470  IM1H      146             0.0000000000
      2917       146  IM1H      N2              2.6405596591       -2.6320646713        2.0761339240  IM1H      146             0.0000000000
      2918       146  IM1H      DN2             2.6619427383       -2.6349274954        2.0876028684  IM1H      146             0.0000000000
      2919       146  IM1H      H7              2.2962430312       -3.5708254065        2.0629300653  IM1H      146             0.0000000000
      2920       146  IM1H      LPN21           2.5498868227       -2.9173635726        2.0957036366  IM1H      146             0.0000000000
      2921       147  IM1H      C1             32.2868882937       -0.7708500106      -17.1874392747  IM1H      147             0.0000000000
      2922       147  IM1H      DC1            32.2811643861       -0.7583538503      -17.1738415355  IM1H      147             0.0000000000
      2923       147  IM1H      H1             31.8744261036       -1.1706829605      -18.1384017108  IM1H      147             0.0000000000
      2924       147  IM1H      H2             31.7538648581       -1.2093946039      -16.3168729896  IM1H      147             0.0000000000
      2925       147  IM1H      H3             33.3735283765       -0.9956753593      -17.1327776369  IM1H      147             0.0000000000
      2926       147  IM1H      N1             32.0781894668        0.6771454117      -17.1948165795  IM1H      147             0.0000000000
      2927       147  IM1H      DN1            32.0776941521        0.6956155043      -17.1907862657  IM1H      147             0.0000000000
      2928       147  IM1H      C2             30.8715098167        1.3148790069      -17.3086448901  IM1H      147             0.0000000000
      2929       147  IM1H      DC2            30.8925333773        1.3187851923      -17.2974814840  IM1H      147             0.0000000000
      2930       147  IM1H      H4             29.9622708951        0.7364057184      -17.4160796972  IM1H      147             0.0000000000
      2931       147  IM1H      C3             31.0961092484        2.6706893148      -17.2737800163  IM1H      147             0.0000000000
      2932       147  IM1H      DC3            31.1006730571        2.6726859697      -17.2649039305  IM1H      147             0.0000000000
      2933       147  IM1H      H5             30.4099125032        3.5055617297      -17.3445689830  IM1H      147             0.0000000000
      2934       147  IM1H      C4             33.0199737398        1.6192078214      -17.0976623495  IM1H      147             0.0000000000
      2935       147  IM1H      DC4            33.0055724304        1.6108889931      -17.1011177638  IM1H      147             0.0000000000
      2936       147  IM1H      H6             34.0830971087        1.3939168101      -17.0133257456  IM1H      147             0.0000000000
      2937       147  IM1H      N2             32.4518572020        2.8455414784      -17.1371398971  IM1H      147             0.0000000000
      2938       147  IM1H      DN2            32.4509368821        2.8459238628      -17.1358356425  IM1H      147             0.0000000000
      2939       147  IM1H      H7             32.9346521576        3.7198508916      -17.0872191527  IM1H      147             0.0000000000
      2940       147  IM1H      LPN21          32.5986371701        3.1065545730      -17.1190345012  IM1H      147             0.0000000000
      2941       148  OAC       C1             13.5890162760       -6.1153036425       -7.9849506239  OAC       1               0.0000000000
      2942       148  OAC       DC1            13.5951614420       -6.1397823700       -7.9840853090  OAC       1               0.0000000000
      2943       148  OAC       C2             14.3842745388       -5.2224706954       -8.9629008852  OAC       1               0.0000000000
      2944       148  OAC       DC2            14.3962816851       -5.2456837308       -8.9436889997  OAC       1               0.0000000000
      2945       148  OAC       H1             13.7965982575       -4.3249331782       -9.2516637533  OAC       1               0.0000000000
      2946       148  OAC       H2             14.6545629659       -5.7758723628       -9.8875693450  OAC       1               0.0000000000
      2947       148  OAC       H3             15.3145554148       -4.8880572917       -8.4558839538  OAC       1               0.0000000000
      2948       148  OAC       O1             13.5492918974       -7.3563712754       -8.2514990115  OAC       1               0.0000000000
      2949       148  OAC       DO1            13.5636377010       -7.3741583623       -8.2529342201  OAC       1               0.0000000000
      2950       148  OAC       O2             13.1869617593       -5.5351665377       -6.9221586001  OAC       1               0.0000000000
      2951       148  OAC       DO2            13.1985961898       -5.5456933855       -6.9214269541  OAC       1               0.0000000000
      2952       148  OAC       H              12.6351486812       -6.0898274551       -6.3504815991  OAC       1               0.0000000000
      2953       148  OAC       LPO11          13.7297972179       -7.4217945956       -8.5441380698  OAC       1               0.0000000000
      2954       148  OAC       LPO12          13.3612978759       -7.5249096868       -8.0091087234  OAC       1               0.0000000000
      2955       148  OAC       LPO21          13.2875614515       -5.1999379729       -6.9233879254  OAC       1               0.0000000000
      2956       148  OAC       LPO22          13.0109148924       -5.7615300016       -6.7214920039  OAC       1               0.0000000000
      2957       149  OAC       C1            -19.9066309307      -20.6760396590      -17.6009274914  OAC       2               0.0000000000
      2958       149  OAC       DC1           -19.9093668651      -20.6724745824      -17.6073977038  OAC       2               0.0000000000
      2959       149  OAC       C2            -18.7743558023      -21.6425974553      -18.0196454988  OAC       2               0.0000000000
      2960       149  OAC       DC2           -18.7704202834      -21.6371368307      -18.0171515628  OAC       2               0.0000000000
      2961       149  OAC       H1            -17.8612026204      -21.4134362603      -17.4297663468  OAC       2               0.0000000000
      2962       149  OAC       H2            -18.5346367686      -21.5504739076      -19.1005567056  OAC       2               0.0000000000
      2963       149  OAC       H3            -19.1011791867      -22.6852484828      -17.8186820381  OAC       2               0.0000000000
      2964       149  OAC       O1            -20.3434303593      -19.9202632114      -18.5109170765  OAC       2               0.0000000000
      2965       149  OAC       DO1           -20.3482272563      -19.9159136700      -18.5154529939  OAC       2               0.0000000000
      2966       149  OAC       O2            -20.3080600709      -20.7374596516      -16.3873935024  OAC       2               0.0000000000
      2967       149  OAC       DO2           -20.3080169941      -20.7405527577      -16.3910795947  OAC       2               0.0000000000
      2968       149  OAC       H             -20.9996896319      -20.0902784148      -16.1830261930  OAC       2               0.0000000000
      2969       149  OAC       LPO11         -20.1724764584      -19.9818957450      -18.8100427935  OAC       2               0.0000000000
      2970       149  OAC       LPO12         -20.5973164779      -19.7151364040      -18.3845650615  OAC       2               0.0000000000
      2971       149  OAC       LPO21         -20.1278988906      -20.9823318938      -16.2139589785  OAC       2               0.0000000000
      2972       149  OAC       LPO22         -20.5633242060      -20.5040784110      -16.3337892312  OAC       2               0.0000000000
      2973       150  OAC       C1              8.8279603483       15.7597732014        3.6856937919  OAC       3               0.0000000000
      2974       150  OAC       DC1             8.8070595104       15.7573044801        3.6757816162  OAC       3               0.0000000000
      2975       150  OAC       C2              8.0495619900       16.7639841266        2.7875695667  OAC       3               0.0000000000
      2976       150  OAC       DC2             8.0303811401       16.7589457089        2.7517565935  OAC       3               0.0000000000
      2977       150  OAC       H1              7.6567778961       16.2103348101        1.9080730678  OAC       3               0.0000000000
      2978       150  OAC       H2              8.7063201117       17.5905712948        2.4415299397  OAC       3               0.0000000000
      2979       150  OAC       H3              7.1957119866       17.1997229455        3.3491680473  OAC       3               0.0000000000
      2980       150  OAC       O1             10.0610830586       15.9589415213        3.8859017059  OAC       3               0.0000000000
      2981       150  OAC       DO1            10.0462562467       15.9503887906        3.8802544087  OAC       3               0.0000000000
      2982       150  OAC       O2              8.1066267386       14.7725319600        4.0801454824  OAC       3               0.0000000000
      2983       150  OAC       DO2             8.1039962637       14.7669300574        4.0793683917  OAC       3               0.0000000000
      2984       150  OAC       H               8.5546854030       14.1974651718        4.7185048031  OAC       3               0.0000000000
      2985       150  OAC       LPO11          10.1646944059       16.2474925974        3.7170734938  OAC       3               0.0000000000
      2986       150  OAC       LPO12          10.1908441176       15.7080836851        4.0926199044  OAC       3               0.0000000000
      2987       150  OAC       LPO21           7.7817886763       14.8035263024        3.9535769870  OAC       3               0.0000000000
      2988       150  OAC       LPO22           8.2970428203       14.5575632109        4.2802208500  OAC       3               0.0000000000
      2989       151  OAC       C1            -26.1548822073      -26.8213988071       27.6101241676  OAC       4               0.0000000000
      2990       151  OAC       DC1           -26.1519433500      -26.8182339774       27.6106899702  OAC       4               0.0000000000
      2991       151  OAC       C2            -25.6665793859      -26.5456780083       29.0441961237  OAC       4               0.0000000000
      2992       151  OAC       DC2           -25.6613452669      -26.5420086407       29.0506933478  OAC       4               0.0000000000
      2993       151  OAC       H1            -25.4691563358      -25.4579273978       29.1543948019  OAC       4               0.0000000000
      2994       151  OAC       H2            -24.7327481391      -27.1048348461       29.2669602000  OAC       4               0.0000000000
      2995       151  OAC       H3            -26.4578909369      -26.8599132955       29.7579210107  OAC       4               0.0000000000
      2996       151  OAC       O1            -25.4869351452      -27.6571516137       26.9466026908  OAC       4               0.0000000000
      2997       151  OAC       DO1           -25.4791434401      -27.6509897383       26.9507530297  OAC       4               0.0000000000
      2998       151  OAC       O2            -27.1293590266      -26.1030319416       27.2178042196  OAC       4               0.0000000000
      2999       151  OAC       DO2           -27.1269549248      -26.0988148560       27.2178378837  OAC       4               0.0000000000
      3000       151  OAC       H             -27.4543656293      -26.3346330840       26.3348021703  OAC       4               0.0000000000
      3001       151  OAC       LPO11         -25.2213254804      -27.7784139572       27.1395973799  OAC       4               0.0000000000
      3002       151  OAC       LPO12         -25.6255192036      -27.6948270261       26.6274240229  OAC       4               0.0000000000
      3003       151  OAC       LPO21         -27.2251230864      -25.8821348817       27.4718391262  OAC       4               0.0000000000
      3004       151  OAC       LPO22         -27.2169197778      -26.1887852329       26.8899635756  OAC       4               0.0000000000
      3005       152  OAC       C1            -29.7851799749       20.0260834037       14.3734514312  OAC       5               0.0000000000
      3006       152  OAC       DC1           -29.7770867944       20.0325504890       14.3738636888  OAC       5               0.0000000000
      3007       152  OAC       C2            -31.0290249108       19.1074264656       14.3296653033  OAC       5               0.0000000000
      3008       152  OAC       DC2           -31.0194777426       19.1199781058       14.3377241108  OAC       5               0.0000000000
      3009       152  OAC       H1            -31.9036111383       19.6486132660       14.7498281025  OAC       5               0.0000000000
      3010       152  OAC       H2            -30.8696690077       18.1771611121       14.9157822458  OAC       5               0.0000000000
      3011       152  OAC       H3            -31.2436134218       18.8320257547       13.2749486495  OAC       5               0.0000000000
      3012       152  OAC       O1            -28.7927816505       19.6198423181       15.0554720432  OAC       5               0.0000000000
      3013       152  OAC       DO1           -28.7892899481       19.6177416054       15.0561545835  OAC       5               0.0000000000
      3014       152  OAC       O2            -29.8942696701       21.1146505485       13.7027758145  OAC       5               0.0000000000
      3015       152  OAC       DO2           -29.8953839977       21.1166257727       13.6982429728  OAC       5               0.0000000000
      3016       152  OAC       H             -29.1201245775       21.6951502625       13.7545489663  OAC       5               0.0000000000
      3017       152  OAC       LPO11         -28.8653854093       19.3090014935       15.1990222992  OAC       5               0.0000000000
      3018       152  OAC       LPO12         -28.5332197751       19.8541513041       15.0404077852  OAC       5               0.0000000000
      3019       152  OAC       LPO21         -30.2089022541       21.1302645624       13.5502551941  OAC       5               0.0000000000
      3020       152  OAC       LPO22         -29.5999900761       21.3021317593       13.7301677135  OAC       5               0.0000000000
      3021       153  OAC       C1            -13.0903816373        0.4123374890       25.5609359118  OAC       6               0.0000000000
      3022       153  OAC       DC1           -13.0957008134        0.4369492848       25.5602233235  OAC       6               0.0000000000
      3023       153  OAC       C2            -12.2861251882        0.1805642843       26.8662821926  OAC       6               0.0000000000
      3024       153  OAC       DC2           -12.2855464271        0.1745706634       26.8561822831  OAC       6               0.0000000000
      3025       153  OAC       H1            -11.2126493791        0.3910430330       26.6721961700  OAC       6               0.0000000000
      3026       153  OAC       H2            -12.3858662303       -0.8639912523       27.2313526728  OAC       6               0.0000000000
      3027       153  OAC       H3            -12.6494301020        0.8711655726       27.6571048031  OAC       6               0.0000000000
      3028       153  OAC       O1            -13.7150688698       -0.5775532016       25.0858343558  OAC       6               0.0000000000
      3029       153  OAC       DO1           -13.7132395123       -0.5705245623       25.0984139845  OAC       6               0.0000000000
      3030       153  OAC       O2            -13.0974755854        1.6197077115       25.1256242094  OAC       6               0.0000000000
      3031       153  OAC       DO2           -13.1005827544        1.6332791516       25.1260555058  OAC       6               0.0000000000
      3032       153  OAC       H             -13.5809501381        1.7371815778       24.2941115831  OAC       6               0.0000000000
      3033       153  OAC       LPO11         -13.6659178574       -0.8586209148       25.2885289995  OAC       6               0.0000000000
      3034       153  OAC       LPO12         -13.8826106369       -0.4840896204       24.7930984419  OAC       6               0.0000000000
      3035       153  OAC       LPO21         -12.9101571270        1.8248292277       25.3385489820  OAC       6               0.0000000000
      3036       153  OAC       LPO22         -13.2861173269        1.6398052992       24.8314977395  OAC       6               0.0000000000
      3037       154  OAC       C1            -34.6209334760       18.1693225090      -31.9184876951  OAC       7               0.0000000000
      3038       154  OAC       DC1           -34.6205076950       18.1708372896      -31.9169730096  OAC       7               0.0000000000
      3039       154  OAC       C2            -34.5418694973       19.6545311864      -32.3741881707  OAC       7               0.0000000000
      3040       154  OAC       DC2           -34.5232492077       19.6464940965      -32.3828010208  OAC       7               0.0000000000
      3041       154  OAC       H1            -35.5100925740       20.1541067881      -32.1567271580  OAC       7               0.0000000000
      3042       154  OAC       H2            -34.3355675682       19.7354229102      -33.4628649112  OAC       7               0.0000000000
      3043       154  OAC       H3            -33.7298873325       20.1743884683      -31.8221425467  OAC       7               0.0000000000
      3044       154  OAC       O1            -34.4232498675       17.3143379807      -32.8374165732  OAC       7               0.0000000000
      3045       154  OAC       DO1           -34.4211344325       17.3169880953      -32.8391031239  OAC       7               0.0000000000
      3046       154  OAC       O2            -34.8159217139       17.9648407553      -30.6667392376  OAC       7               0.0000000000
      3047       154  OAC       DO2           -34.8164432415       17.9577031566      -30.6654890052  OAC       7               0.0000000000
      3048       154  OAC       H             -34.7733303651       17.0352023295      -30.3967033617  OAC       7               0.0000000000
      3049       154  OAC       LPO11         -34.3623161400       17.4770667813      -33.1412362867  OAC       7               0.0000000000
      3050       154  OAC       LPO12         -34.4469358202       16.9905120035      -32.7067425048  OAC       7               0.0000000000
      3051       154  OAC       LPO21         -34.8403148415       18.2704503460      -30.4978968454  OAC       7               0.0000000000
      3052       154  OAC       LPO22         -34.8279075162       17.6210810306      -30.6020430844  OAC       7               0.0000000000
      3053       155  OAC       C1            -19.7307945025       36.7107072583      -34.4099295876  OAC       8               0.0000000000
      3054       155  OAC       DC1           -19.7072649750       36.7273236625      -34.4219645093  OAC       8               0.0000000000
      3055       155  OAC       C2            -19.8565111217       36.4708820560      -35.9331947551  OAC       8               0.0000000000
      3056       155  OAC       DC2           -19.8554130953       36.4803633252      -35.9451457548  OAC       8               0.0000000000
      3057       155  OAC       H1            -19.3894690230       35.5026171139      -36.2136509549  OAC       8               0.0000000000
      3058       155  OAC       H2            -19.4048696806       37.3018081161      -36.5162066704  OAC       8               0.0000000000
      3059       155  OAC       H3            -20.9330454739       36.3661078815      -36.1870001164  OAC       8               0.0000000000
      3060       155  OAC       O1            -18.8215664377       37.5131669544      -34.0209540225  OAC       8               0.0000000000
      3061       155  OAC       DO1           -18.8115586630       37.5238205615      -34.0123985811  OAC       8               0.0000000000
      3062       155  OAC       O2            -20.6282937568       36.1086227968      -33.7356619395  OAC       8               0.0000000000
      3063       155  OAC       DO2           -20.6154005856       36.1148081573      -33.7584161224  OAC       8               0.0000000000
      3064       155  OAC       H             -20.5815664975       36.2419469212      -32.7770158937  OAC       8               0.0000000000
      3065       155  OAC       LPO11         -18.6456999511       37.6375927586      -34.2967967279  OAC       8               0.0000000000
      3066       155  OAC       LPO12         -18.8265080503       37.5395947453      -33.6719881899  OAC       8               0.0000000000
      3067       155  OAC       LPO21         -20.8400001780       35.9306934930      -33.9501882877  OAC       8               0.0000000000
      3068       155  OAC       LPO22         -20.5852704972       36.1733915491      -33.3944083566  OAC       8               0.0000000000
      3069       156  OAC       C1            -23.6421524711       26.9468351120       -2.0996094725  OAC       9               0.0000000000
      3070       156  OAC       DC1           -23.6469710252       26.9468784096       -2.0961896628  OAC       9               0.0000000000
      3071       156  OAC       C2            -24.3815073858       28.2024724803       -1.5845653576  OAC       9               0.0000000000
      3072       156  OAC       DC2           -24.3753007241       28.2089365230       -1.5638923484  OAC       9               0.0000000000
      3073       156  OAC       H1            -23.8653157743       28.5891568784       -0.6799425638  OAC       9               0.0000000000
      3074       156  OAC       H2            -25.4360634415       27.9679150769       -1.3253061233  OAC       9               0.0000000000
      3075       156  OAC       H3            -24.3730026052       28.9816013824       -2.3765292599  OAC       9               0.0000000000
      3076       156  OAC       O1            -24.3026546568       25.8689478564       -2.2032857680  OAC       9               0.0000000000
      3077       156  OAC       DO1           -24.3039248875       25.8696897439       -2.2038286905  OAC       9               0.0000000000
      3078       156  OAC       O2            -22.3902440789       27.1366737525       -2.2809195316  OAC       9               0.0000000000
      3079       156  OAC       DO2           -22.3945644384       27.1401497066       -2.2697762758  OAC       9               0.0000000000
      3080       156  OAC       H             -21.9265286919       26.3770285661       -2.6641534427  OAC       9               0.0000000000
      3081       156  OAC       LPO11         -24.6339222852       25.9214540417       -2.1032614764  OAC       9               0.0000000000
      3082       156  OAC       LPO12         -24.0960581372       25.6129882954       -2.3228791677  OAC       9               0.0000000000
      3083       156  OAC       LPO21         -22.3059937418       27.4662633293       -2.1986237748  OAC       9               0.0000000000
      3084       156  OAC       LPO22         -22.2401763088       26.8426160335       -2.3971508624  OAC       9               0.0000000000
      3085       157  OAC       C1             10.3122680826      -13.9249943139       26.1164964790  OAC       10              0.0000000000
      3086       157  OAC       DC1            10.3374584747      -13.9268041647       26.1193907059  OAC       10              0.0000000000
      3087       157  OAC       C2              9.6312765902      -13.7356592066       24.7632057515  OAC       10              0.0000000000
      3088       157  OAC       DC2             9.6419529070      -13.7394329812       24.7829995212  OAC       10              0.0000000000
      3089       157  OAC       H1              8.8476898293      -14.5096178675       24.6172578831  OAC       10              0.0000000000
      3090       157  OAC       H2             10.3632523133      -13.8169793342       23.9313887178  OAC       10              0.0000000000
      3091       157  OAC       H3              9.1627983411      -12.7289726623       24.7253727877  OAC       10              0.0000000000
      3092       157  OAC       O1             11.5701396794      -14.0410907929       26.0718550069  OAC       10              0.0000000000
      3093       157  OAC       DO1            11.5881657024      -14.0392531374       26.0883539697  OAC       10              0.0000000000
      3094       157  OAC       O2              9.5697921124      -13.9655895714       27.1564141181  OAC       10              0.0000000000
      3095       157  OAC       DO2             9.5767631325      -13.9632170458       27.1518173603  OAC       10              0.0000000000
      3096       157  OAC       H              10.0482725270      -14.1445361699       27.9798190050  OAC       10              0.0000000000
      3097       157  OAC       LPO11          11.6805005279      -14.0211925157       25.7403063051  OAC       10              0.0000000000
      3098       157  OAC       LPO12          11.6980309426      -14.0829787798       26.3949482154  OAC       10              0.0000000000
      3099       157  OAC       LPO21           9.2338983729      -13.9287949991       27.0651915597  OAC       10              0.0000000000
      3100       157  OAC       LPO22           9.7666393843      -14.0099865812       27.4423862445  OAC       10              0.0000000000
      3101       158  OAC       C1            -32.9493570615       12.9375786808       10.1092777721  OAC       11              0.0000000000
      3102       158  OAC       DC1           -32.9637332891       12.9549454040       10.1000255875  OAC       11              0.0000000000
      3103       158  OAC       C2            -32.1489874731       11.8518768921       10.8589750755  OAC       11              0.0000000000
      3104       158  OAC       DC2           -32.1444078696       11.8909586219       10.8482722182  OAC       11              0.0000000000
      3105       158  OAC       H1            -32.1826933040       10.9015100828       10.2845293907  OAC       11              0.0000000000
      3106       158  OAC       H2            -32.5668956929       11.6640404595       11.8710972007  OAC       11              0.0000000000
      3107       158  OAC       H3            -31.0919061437       12.1720928402       10.9788158464  OAC       11              0.0000000000
      3108       158  OAC       O1            -33.9857210830       13.4090639240       10.6755184937  OAC       11              0.0000000000
      3109       158  OAC       DO1           -33.9888739311       13.4226480090       10.6811593541  OAC       11              0.0000000000
      3110       158  OAC       O2            -32.4467431500       13.3038970674        8.9863384868  OAC       11              0.0000000000
      3111       158  OAC       DO2           -32.4420004336       13.3067547679        8.9834732834  OAC       11              0.0000000000
      3112       158  OAC       H             -32.9914956637       13.9405164194        8.4995926605  OAC       11              0.0000000000
      3113       158  OAC       LPO11         -34.0320024617       13.2561767067       10.9869402861  OAC       11              0.0000000000
      3114       158  OAC       LPO12         -34.1345634365       13.6507210700       10.4707069277  OAC       11              0.0000000000
      3115       158  OAC       LPO21         -32.1515910552       13.1265094042        8.9237377050  OAC       11              0.0000000000
      3116       158  OAC       LPO22         -32.6481537995       13.5496059891        8.8395022650  OAC       11              0.0000000000
      3117       159  OAC       C1            -30.7207904669       14.0799364971      -17.2719583685  OAC       12              0.0000000000
      3118       159  OAC       DC1           -30.7420268828       14.0795173644      -17.2568483453  OAC       12              0.0000000000
      3119       159  OAC       C2            -29.8436912830       14.9103221719      -18.2207244722  OAC       12              0.0000000000
      3120       159  OAC       DC2           -29.8700720550       14.9054508096      -18.2047132399  OAC       12              0.0000000000
      3121       159  OAC       H1            -30.4612692987       15.2932527568      -19.0611306613  OAC       12              0.0000000000
      3122       159  OAC       H2            -29.0086587840       14.3081555741      -18.6383811662  OAC       12              0.0000000000
      3123       159  OAC       H3            -29.4093434934       15.7695158763      -17.6662434734  OAC       12              0.0000000000
      3124       159  OAC       O1            -30.3963668063       12.8658919611      -17.0842878812  OAC       12              0.0000000000
      3125       159  OAC       DO1           -30.4105766868       12.8631228427      -17.0819554683  OAC       12              0.0000000000
      3126       159  OAC       O2            -31.7383248429       14.6911180151      -16.7727827560  OAC       12              0.0000000000
      3127       159  OAC       DO2           -31.7642812882       14.6829000565      -16.7699723021  OAC       12              0.0000000000
      3128       159  OAC       H             -32.1905755872       14.1980513980      -16.0718436887  OAC       12              0.0000000000
      3129       159  OAC       LPO11         -30.1102754769       12.7882945473      -17.2703803115  OAC       12              0.0000000000
      3130       159  OAC       LPO12         -30.6213273432       12.7147283025      -16.8628329080  OAC       12              0.0000000000
      3131       159  OAC       LPO21         -31.7496710546       15.0205462599      -16.8904615349  OAC       12              0.0000000000
      3132       159  OAC       LPO22         -31.9161668398       14.4753255739      -16.5622932159  OAC       12              0.0000000000
      3133       160  OAC       C1             15.4237855842        2.0970750225       11.9829834241  OAC       13              0.0000000000
      3134       160  OAC       DC1            15.4225687331        2.0973108776       11.9673804347  OAC       13              0.0000000000
      3135       160  OAC       C2             16.1065335127        2.8931862256       13.1045479983  OAC       13              0.0000000000
      3136       160  OAC       DC2            16.1003221810        2.9006629373       13.0752845472  OAC       13              0.0000000000
      3137       160  OAC       H1             16.8636665587        2.2636846120       13.6191335297  OAC       13              0.0000000000
      3138       160  OAC       H2             15.3682651989        3.2442269367       13.8569118180  OAC       13              0.0000000000
      3139       160  OAC       H3             16.6006440703        3.7765330340       12.6464277374  OAC       13              0.0000000000
      3140       160  OAC       O1             14.1656783934        1.9920579639       12.0560694967  OAC       13              0.0000000000
      3141       160  OAC       DO1            14.1634035207        1.9949833154       12.0472435496  OAC       13              0.0000000000
      3142       160  OAC       O2             16.1967596744        1.7760439137       11.0120225936  OAC       13              0.0000000000
      3143       160  OAC       DO2            16.2023350353        1.7893767951       10.9974267368  OAC       13              0.0000000000
      3144       160  OAC       H              15.7806299242        1.2031177473       10.3505449759  OAC       13              0.0000000000
      3145       160  OAC       LPO11          14.0479482665        2.1588334699       12.3403678396  OAC       13              0.0000000000
      3146       160  OAC       LPO12          14.0452229462        1.8054005683       11.7856078508  OAC       13              0.0000000000
      3147       160  OAC       LPO21          16.5201187792        1.8959160359       11.0717684190  OAC       13              0.0000000000
      3148       160  OAC       LPO22          16.0177630287        1.5962152666       10.7709378398  OAC       13              0.0000000000
      3149       161  OAC       C1            -27.0287004523       34.9842056512      -22.4533117887  OAC       14              0.0000000000
      3150       161  OAC       DC1           -27.0293074895       34.9710449180      -22.4507753899  OAC       14              0.0000000000
      3151       161  OAC       C2            -27.2946387961       36.4744066510      -22.5625270174  OAC       14              0.0000000000
      3152       161  OAC       DC2           -27.2907504465       36.4545604130      -22.5524072141  OAC       14              0.0000000000
      3153       161  OAC       H1            -26.6530230930       37.0544680872      -21.8652616306  OAC       14              0.0000000000
      3154       161  OAC       H2            -28.3592159441       36.7262839583      -22.3687376493  OAC       14              0.0000000000
      3155       161  OAC       H3            -27.0307790419       36.7523127495      -23.6053439865  OAC       14              0.0000000000
      3156       161  OAC       O1            -27.9893036203       34.2408478503      -22.0913678956  OAC       14              0.0000000000
      3157       161  OAC       DO1           -27.9905657161       34.2360306725      -22.0839053047  OAC       14              0.0000000000
      3158       161  OAC       O2            -25.8269398849       34.6455641391      -22.7351615116  OAC       14              0.0000000000
      3159       161  OAC       DO2           -25.8245064538       34.6414448301      -22.7291226748  OAC       14              0.0000000000
      3160       161  OAC       H             -25.6642978714       33.6904580803      -22.7183986988  OAC       14              0.0000000000
      3161       161  OAC       LPO11         -28.2755167765       34.4341766665      -22.0347463624  OAC       14              0.0000000000
      3162       161  OAC       LPO12         -27.8845478475       33.9070991750      -22.0796184365  OAC       14              0.0000000000
      3163       161  OAC       LPO21         -25.6395064564       34.9287519069      -22.8198574270  OAC       14              0.0000000000
      3164       161  OAC       LPO22         -25.7895895758       34.2990350480      -22.7031842791  OAC       14              0.0000000000
      3165       162  OAC       C1             26.3542542924      -19.1273072534       -1.1528924124  OAC       15              0.0000000000
      3166       162  OAC       DC1            26.3171814429      -19.1312364379       -1.1963002990  OAC       15              0.0000000000
      3167       162  OAC       C2             27.7054338446      -19.5896564654       -1.7404062717  OAC       15              0.0000000000
      3168       162  OAC       DC2            27.6954479698      -19.5762564413       -1.7544794593  OAC       15              0.0000000000
      3169       162  OAC       H1             27.6044639788      -20.6222534983       -2.1377341639  OAC       15              0.0000000000
      3170       162  OAC       H2             28.5037770698      -19.5866169282       -0.9677744983  OAC       15              0.0000000000
      3171       162  OAC       H3             27.9961774375      -18.8931170106       -2.5556497639  OAC       15              0.0000000000
      3172       162  OAC       O1             26.3849636122      -18.6980127579        0.0270447023  OAC       15              0.0000000000
      3173       162  OAC       DO1            26.3908757746      -18.7067551047        0.0007450966  OAC       15              0.0000000000
      3174       162  OAC       O2             25.3645023614      -19.1677297602       -1.9763105887  OAC       15              0.0000000000
      3175       162  OAC       DO2            25.3466278527      -19.1672909386       -2.0271724660  OAC       15              0.0000000000
      3176       162  OAC       H              24.5247176244      -18.8892378643       -1.5811335910  OAC       15              0.0000000000
      3177       162  OAC       LPO11          26.7119936899      -18.7118289955        0.1509819438  OAC       15              0.0000000000
      3178       162  OAC       LPO12          26.0637873203      -18.6023647484        0.1280261255  OAC       15              0.0000000000
      3179       162  OAC       LPO21          25.4727218352      -19.2847495159       -2.2879111700  OAC       15              0.0000000000
      3180       162  OAC       LPO22          25.0723248306      -19.0582230443       -1.8177528084  OAC       15              0.0000000000
      3181       163  OAC       C1             16.1583323825       11.9740811641      -22.2634800504  OAC       16              0.0000000000
      3182       163  OAC       DC1            16.1575316440       11.9674374319      -22.2678637041  OAC       16              0.0000000000
      3183       163  OAC       C2             16.0450756114       13.3939019217      -21.6745071186  OAC       16              0.0000000000
      3184       163  OAC       DC2            16.0472580735       13.3812752137      -21.6808946274  OAC       16              0.0000000000
      3185       163  OAC       H1             16.1410983171       14.1421166306      -22.4901512760  OAC       16              0.0000000000
      3186       163  OAC       H2             16.8334827484       13.5839319836      -20.9151496512  OAC       16              0.0000000000
      3187       163  OAC       H3             15.0518270482       13.5004607785      -21.1882731197  OAC       16              0.0000000000
      3188       163  OAC       O1             17.0951929940       11.2474226764      -21.8133038463  OAC       16              0.0000000000
      3189       163  OAC       DO1            17.0903659508       11.2451251183      -21.8097875036  OAC       16              0.0000000000
      3190       163  OAC       O2             15.2658662961       11.6766446057      -23.1347811200  OAC       16              0.0000000000
      3191       163  OAC       DO2            15.2614315671       11.6752859324      -23.1327572454  OAC       16              0.0000000000
      3192       163  OAC       H              15.3544331826       10.7876220447      -23.5099554701  OAC       16              0.0000000000
      3193       163  OAC       LPO11          17.2778350403       11.4233983027      -21.5721100199  OAC       16              0.0000000000
      3194       163  OAC       LPO12          17.0894102106       10.9342694562      -21.9695140255  OAC       16              0.0000000000
      3195       163  OAC       LPO21          15.0492698144       11.9475626921      -23.1815716592  OAC       16              0.0000000000
      3196       163  OAC       LPO22          15.3158250253       11.3501903365      -23.2506764846  OAC       16              0.0000000000
      3197       164  OAC       C1             36.6062340239      -29.2340075396      -16.3169985486  OAC       17              0.0000000000
      3198       164  OAC       DC1            36.6039404137      -29.2248526870      -16.3147041731  OAC       17              0.0000000000
      3199       164  OAC       C2             36.5338595084      -30.7009911795      -16.7800266784  OAC       17              0.0000000000
      3200       164  OAC       DC2            36.5316866250      -30.6869784990      -16.7741175218  OAC       17              0.0000000000
      3201       164  OAC       H1             37.5604171232      -31.0719569758      -16.9871132387  OAC       17              0.0000000000
      3202       164  OAC       H2             35.9215399437      -30.7856571126      -17.7031829113  OAC       17              0.0000000000
      3203       164  OAC       H3             36.0807273022      -31.3290062628      -15.9834155687  OAC       17              0.0000000000
      3204       164  OAC       O1             36.0488375498      -28.3472261162      -17.0351277118  OAC       17              0.0000000000
      3205       164  OAC       DO1            36.0474717187      -28.3422763797      -17.0361900437  OAC       17              0.0000000000
      3206       164  OAC       O2             37.2236787492      -29.0814610907      -15.2088803791  OAC       17              0.0000000000
      3207       164  OAC       DO2            37.2268949578      -29.0784970793      -15.2092548768  OAC       17              0.0000000000
      3208       164  OAC       H              37.2272822248      -28.1708877830      -14.8775131111  OAC       17              0.0000000000
      3209       164  OAC       LPO11          35.9009201424      -28.4957505456      -17.3154149474  OAC       17              0.0000000000
      3210       164  OAC       LPO12          36.0916734824      -28.0315239163      -16.8902235923  OAC       17              0.0000000000
      3211       164  OAC       LPO21          37.3334779611      -29.3915522672      -15.0893496496  OAC       17              0.0000000000
      3212       164  OAC       LPO22          37.2295786307      -28.7427851921      -15.1207677970  OAC       17              0.0000000000
      3213       165  OAC       C1            -28.3890334755      -15.8979188245        6.6736776072  OAC       18              0.0000000000
      3214       165  OAC       DC1           -28.3733989881      -15.8929788308        6.6535368524  OAC       18              0.0000000000
      3215       165  OAC       C2            -29.3656501750      -15.3233486356        5.6231328961  OAC       18              0.0000000000
      3216       165  OAC       DC2           -29.3554938935      -15.3409541205        5.6039651584  OAC       18              0.0000000000
      3217       165  OAC       H1            -29.9699134606      -16.1502480861        5.1925238152  OAC       18              0.0000000000
      3218       165  OAC       H2            -28.8237047792      -14.7996690695        4.8068143915  OAC       18              0.0000000000
      3219       165  OAC       H3            -30.0590774739      -14.6074953634        6.1140847006  OAC       18              0.0000000000
      3220       165  OAC       O1            -27.1596461065      -15.7282273093        6.4086013765  OAC       18              0.0000000000
      3221       165  OAC       DO1           -27.1505421685      -15.7229752016        6.4015955695  OAC       18              0.0000000000
      3222       165  OAC       O2            -28.9311632841      -16.5233067699        7.6411993336  OAC       18              0.0000000000
      3223       165  OAC       DO2           -28.9250317558      -16.5117969115        7.6259425015  OAC       18              0.0000000000
      3224       165  OAC       H             -28.3125903870      -16.9016012089        8.2840227062  OAC       18              0.0000000000
      3225       165  OAC       LPO11         -27.1251077421      -15.5570356116        6.1052855278  OAC       18              0.0000000000
      3226       165  OAC       LPO12         -26.9622505232      -15.8674053194        6.6619084337  OAC       18              0.0000000000
      3227       165  OAC       LPO21         -29.2791330234      -16.5236103260        7.6035566927  OAC       18              0.0000000000
      3228       165  OAC       LPO22         -28.6851339497      -16.6405992201        7.8607717539  OAC       18              0.0000000000
      3229       166  OAC       C1             33.8728405062       12.8245935138      -27.4872570577  OAC       19              0.0000000000
      3230       166  OAC       DC1            33.8635746013       12.8314440128      -27.4825511994  OAC       19              0.0000000000
      3231       166  OAC       C2             34.7353583120       11.5477005717      -27.4758129765  OAC       19              0.0000000000
      3232       166  OAC       DC2            34.7236602208       11.5564651710      -27.4681395384  OAC       19              0.0000000000
      3233       166  OAC       H1             34.2451762941       10.7791170238      -26.8407366659  OAC       19              0.0000000000
      3234       166  OAC       H2             35.7600110735       11.7389965496      -27.0913476762  OAC       19              0.0000000000
      3235       166  OAC       H3             34.8076831086       11.1727064646      -28.5191104152  OAC       19              0.0000000000
      3236       166  OAC       O1             34.3689360928       13.8613908584      -26.9468619243  OAC       19              0.0000000000
      3237       166  OAC       DO1            34.3690779810       13.8636463294      -26.9421899553  OAC       19              0.0000000000
      3238       166  OAC       O2             32.7049720848       12.6794902525      -27.9979901495  OAC       19              0.0000000000
      3239       166  OAC       DO2            32.6955051606       12.6798386969      -27.9942524654  OAC       19              0.0000000000
      3240       166  OAC       H              32.1883245371       13.4970894460      -28.0577218015  OAC       19              0.0000000000
      3241       166  OAC       LPO11          34.6879596910       13.7901740302      -26.8217535427  OAC       19              0.0000000000
      3242       166  OAC       LPO12          34.1434285682       14.1280482821      -26.9701035842  OAC       19              0.0000000000
      3243       166  OAC       LPO21          32.6606484011       12.3486777191      -28.1033394673  OAC       19              0.0000000000
      3244       166  OAC       LPO22          32.5313479704       12.9832235913      -27.9879539258  OAC       19              0.0000000000
      3245       167  OAC       C1            -10.5341376750       -1.1314591684      -11.8140846754  OAC       20              0.0000000000
      3246       167  OAC       DC1           -10.5505180626       -1.1233773354      -11.8050867607  OAC       20              0.0000000000
      3247       167  OAC       C2            -10.2258154986       -2.4363359603      -11.0588145946  OAC       20              0.0000000000
      3248       167  OAC       DC2           -10.2351442178       -2.4363407283      -11.0476743146  OAC       20              0.0000000000
      3249       167  OAC       H1             -9.8883717738       -2.2191650608      -10.0228177151  OAC       20              0.0000000000
      3250       167  OAC       H2             -9.4450886408       -3.0077505015      -11.6049574296  OAC       20              0.0000000000
      3251       167  OAC       H3            -11.1426843853       -3.0626967131      -11.0221450978  OAC       20              0.0000000000
      3252       167  OAC       O1             -9.8533814988       -0.8752491244      -12.8498169225  OAC       20              0.0000000000
      3253       167  OAC       DO1            -9.8529106557       -0.8882558355      -12.8434416953  OAC       20              0.0000000000
      3254       167  OAC       O2            -11.5365553740       -0.4993944542      -11.3188507144  OAC       20              0.0000000000
      3255       167  OAC       DO2           -11.5562000268       -0.5083521543      -11.3031381262  OAC       20              0.0000000000
      3256       167  OAC       H             -11.6569926177        0.3809126724      -11.7055227113  OAC       20              0.0000000000
      3257       167  OAC       LPO11          -9.6214881070       -1.1310991318      -12.9069678505  OAC       20              0.0000000000
      3258       167  OAC       LPO12          -9.9564987831       -0.5709328183      -12.9885916015  OAC       20              0.0000000000
      3259       167  OAC       LPO21         -11.6654939565       -0.6751764257      -11.0450340961  OAC       20              0.0000000000
      3260       167  OAC       LPO22         -11.5944734753       -0.2057918213      -11.5003527460  OAC       20              0.0000000000
      3261       168  OAC       C1            -27.9825661697       -1.2628222250      -22.8296350190  OAC       21              0.0000000000
      3262       168  OAC       DC1           -27.9844162318       -1.2557802990      -22.8103192425  OAC       21              0.0000000000
      3263       168  OAC       C2            -29.2543150951       -2.1168220915      -22.9777565861  OAC       21              0.0000000000
      3264       168  OAC       DC2           -29.2514741326       -2.1106532385      -22.9761440036  OAC       21              0.0000000000
      3265       168  OAC       H1            -29.8657423857       -2.0823406738      -22.0507783230  OAC       21              0.0000000000
      3266       168  OAC       H2            -29.0206245847       -3.1762818851      -23.2170361149  OAC       21              0.0000000000
      3267       168  OAC       H3            -29.8212355256       -1.6711409697      -23.8229137098  OAC       21              0.0000000000
      3268       168  OAC       O1            -26.8779435783       -1.8406828095      -23.0537526634  OAC       21              0.0000000000
      3269       168  OAC       DO1           -26.8841957348       -1.8411077473      -23.0494483496  OAC       21              0.0000000000
      3270       168  OAC       O2            -28.1945604458       -0.0845466198      -22.3652212571  OAC       21              0.0000000000
      3271       168  OAC       DO2           -28.1942046031       -0.0817032286      -22.3556521340  OAC       21              0.0000000000
      3272       168  OAC       H             -27.4040403729        0.4734709389      -22.3136904948  OAC       21              0.0000000000
      3273       168  OAC       LPO11         -26.9332377150       -2.1754169763      -23.1397503147  OAC       21              0.0000000000
      3274       168  OAC       LPO12         -26.6138568513       -1.6151741911      -23.0101170858  OAC       21              0.0000000000
      3275       168  OAC       LPO21         -28.5361676514       -0.0398733238      -22.3035056700  OAC       21              0.0000000000
      3276       168  OAC       LPO22         -27.8924780185        0.0904609308      -22.3403503038  OAC       21              0.0000000000
      3277       169  OAC       C1             15.3630652393      -12.6089471129      -24.6532917018  OAC       22              0.0000000000
      3278       169  OAC       DC1            15.3620870038      -12.6080677796      -24.6324081790  OAC       22              0.0000000000
      3279       169  OAC       C2             16.2152765150      -12.0279156462      -23.5139142007  OAC       22              0.0000000000
      3280       169  OAC       DC2            16.2219746768      -12.0217574246      -23.4921244883  OAC       22              0.0000000000
      3281       169  OAC       H1             15.5609643068      -11.3791093347      -22.8932315884  OAC       22              0.0000000000
      3282       169  OAC       H2             17.0563276903      -11.4200608274      -23.9107346131  OAC       22              0.0000000000
      3283       169  OAC       H3             16.6172949278      -12.8546504982      -22.8900458797  OAC       22              0.0000000000
      3284       169  OAC       O1             15.6437600697      -12.2485481357      -25.8290341775  OAC       22              0.0000000000
      3285       169  OAC       DO1            15.6331513924      -12.2443138963      -25.8087138461  OAC       22              0.0000000000
      3286       169  OAC       O2             14.4162011922      -13.3612767359      -24.2403431998  OAC       22              0.0000000000
      3287       169  OAC       DO2            14.4154843190      -13.3677952688      -24.2427903935  OAC       22              0.0000000000
      3288       169  OAC       H              13.8337170014      -13.6859082356      -24.9433990701  OAC       22              0.0000000000
      3289       169  OAC       LPO11          15.9136209212      -12.0257106008      -25.8247267623  OAC       22              0.0000000000
      3290       169  OAC       LPO12          15.4271765641      -12.4029800608      -26.0565036602  OAC       22              0.0000000000
      3291       169  OAC       LPO21          14.4214941328      -13.3794430285      -23.8908550446  OAC       22              0.0000000000
      3292       169  OAC       LPO22          14.2335163020      -13.4840569910      -24.5124667743  OAC       22              0.0000000000
      3293       170  OAC       C1             20.2032225077       36.6778805118       11.0247225391  OAC       23              0.0000000000
      3294       170  OAC       DC1            20.1991157055       36.6758965498       11.0404767450  OAC       23              0.0000000000
      3295       170  OAC       C2             19.2483594586       36.6395227854        9.8527185076  OAC       23              0.0000000000
      3296       170  OAC       DC2            19.2626484135       36.6354120664        9.8625807415  OAC       23              0.0000000000
      3297       170  OAC       H1             19.4192228309       37.5194410599        9.1963112116  OAC       23              0.0000000000
      3298       170  OAC       H2             18.1934010530       36.5942186117       10.1981621298  OAC       23              0.0000000000
      3299       170  OAC       H3             19.4482740952       35.7111168884        9.2761618069  OAC       23              0.0000000000
      3300       170  OAC       O1             19.7143748739       36.6450909367       12.1907892207  OAC       23              0.0000000000
      3301       170  OAC       DO1            19.7266325414       36.6496722977       12.2087865941  OAC       23              0.0000000000
      3302       170  OAC       O2             21.4263745779       36.6821109330       10.6568745277  OAC       23              0.0000000000
      3303       170  OAC       DO2            21.4193726411       36.6768885225       10.6576592249  OAC       23              0.0000000000
      3304       170  OAC       H              22.0500383357       36.8441540834       11.3805778748  OAC       23              0.0000000000
      3305       170  OAC       LPO11          19.3652068509       36.6279996702       12.1737721624  OAC       23              0.0000000000
      3306       170  OAC       LPO12          19.9710100328       36.6559755387       12.4285284070  OAC       23              0.0000000000
      3307       170  OAC       LPO21          21.4463489122       36.6739318917       10.3075406913  OAC       23              0.0000000000
      3308       170  OAC       LPO22          21.6356694980       36.6910829300       10.9372584426  OAC       23              0.0000000000
      3309       171  OAC       C1             24.9907811066        2.0727942099      -10.4736854103  OAC       24              0.0000000000
      3310       171  OAC       DC1            24.9678860760        2.0480773079      -10.4634933669  OAC       24              0.0000000000
      3311       171  OAC       C2             24.7216906434        3.2229794749      -11.4521987839  OAC       24              0.0000000000
      3312       171  OAC       DC2            24.7179962346        3.1970116219      -11.4422823302  OAC       24              0.0000000000
      3313       171  OAC       H1             24.9039008561        4.1948911104      -10.9457323855  OAC       24              0.0000000000
      3314       171  OAC       H2             23.6724353086        3.1957922225      -11.8164035287  OAC       24              0.0000000000
      3315       171  OAC       H3             25.4043156685        3.1306244984      -12.3238722511  OAC       24              0.0000000000
      3316       171  OAC       O1             24.0203394081        1.2844152830      -10.2317034665  OAC       24              0.0000000000
      3317       171  OAC       DO1            23.9996282015        1.2702940375      -10.2353755214  OAC       24              0.0000000000
      3318       171  OAC       O2             26.1959757911        1.9945967339      -10.0666818686  OAC       24              0.0000000000
      3319       171  OAC       DO2            26.1849296741        1.9866938748      -10.0744763759  OAC       24              0.0000000000
      3320       171  OAC       H              26.3702609661        1.2894613416       -9.4253007366  OAC       24              0.0000000000
      3321       171  OAC       LPO11          23.7375503862        1.3836498464      -10.4124875104  OAC       24              0.0000000000
      3322       171  OAC       LPO12          24.1206912551        1.0369702456      -10.0054282794  OAC       24              0.0000000000
      3323       171  OAC       LPO21          26.3878643010        2.2491790055      -10.2111348600  OAC       24              0.0000000000
      3324       171  OAC       LPO22          26.2304886405        1.7253247071       -9.8457713916  OAC       24              0.0000000000
      3325       172  OAC       C1              4.7324354514       25.7754919343      -14.9150368239  OAC       25              0.0000000000
      3326       172  OAC       DC1             4.7113684723       25.7814367370      -14.9288333085  OAC       25              0.0000000000
      3327       172  OAC       C2              5.0789747866       24.2695507480      -14.8520342460  OAC       25              0.0000000000
      3328       172  OAC       DC2             5.0786103098       24.2852918200      -14.8651982820  OAC       25              0.0000000000
      3329       172  OAC       H1              4.3530070383       23.7371053616      -14.2010398229  OAC       25              0.0000000000
      3330       172  OAC       H2              6.1010551688       24.1044880003      -14.4490119341  OAC       25              0.0000000000
      3331       172  OAC       H3              5.0315936069       23.8463722846      -15.8781901859  OAC       25              0.0000000000
      3332       172  OAC       O1              5.6137193372       26.5895643773      -14.5106008801  OAC       25              0.0000000000
      3333       172  OAC       DO1             5.6133689223       26.5816159101      -14.5214654552  OAC       25              0.0000000000
      3334       172  OAC       O2              3.6436286310       26.0372378118      -15.5445956649  OAC       25              0.0000000000
      3335       172  OAC       DO2             3.6447485834       26.0368393979      -15.5800180305  OAC       25              0.0000000000
      3336       172  OAC       H               3.3613373626       26.9618169638      -15.4780672388  OAC       25              0.0000000000
      3337       172  OAC       LPO11           5.8975626894       26.4151518562      -14.4033011882  OAC       25              0.0000000000
      3338       172  OAC       LPO12           5.4965264095       26.9179176664      -14.5414218993  OAC       25              0.0000000000
      3339       172  OAC       LPO21           3.4982335977       25.7407786540      -15.6606656956  OAC       25              0.0000000000
      3340       172  OAC       LPO22           3.5861097630       26.3824768599      -15.5458524530  OAC       25              0.0000000000
      3341       173  OAC       C1            -16.2613205370       -3.9396711046       32.1280233714  OAC       26              0.0000000000
      3342       173  OAC       DC1           -16.2597195436       -3.9550304396       32.1276399311  OAC       26              0.0000000000
      3343       173  OAC       C2            -16.2468055328       -2.5302943262       31.5337941529  OAC       26              0.0000000000
      3344       173  OAC       DC2           -16.2444959710       -2.5464089908       31.5398130491  OAC       26              0.0000000000
      3345       173  OAC       H1            -16.8606454401       -2.5181709110       30.6078489105  OAC       26              0.0000000000
      3346       173  OAC       H2            -15.2121083777       -2.2157818661       31.2792264610  OAC       26              0.0000000000
      3347       173  OAC       H3            -16.6734287583       -1.8115442120       32.2657175773  OAC       26              0.0000000000
      3348       173  OAC       O1            -15.1329085468       -4.5123840622       32.2416739544  OAC       26              0.0000000000
      3349       173  OAC       DO1           -15.1314062444       -4.5249413125       32.2404737960  OAC       26              0.0000000000
      3350       173  OAC       O2            -17.4222763871       -4.4255910177       32.3792793875  OAC       26              0.0000000000
      3351       173  OAC       DO2           -17.4217246863       -4.4381446761       32.3740576980  OAC       26              0.0000000000
      3352       173  OAC       H             -17.4138248914       -5.3122537711       32.7700718309  OAC       26              0.0000000000
      3353       173  OAC       LPO11         -14.8793150299       -4.3015543569       32.1244512452  OAC       26              0.0000000000
      3354       173  OAC       LPO12         -15.1738670978       -4.8311342800       32.3803126783  OAC       26              0.0000000000
      3355       173  OAC       LPO21         -17.6702254676       -4.1945351279       32.2919041665  OAC       26              0.0000000000
      3356       173  OAC       LPO22         -17.3909030914       -4.7472950459       32.5135263038  OAC       26              0.0000000000
      3357       174  OAC       C1            -23.8090786705       12.3477851110      -22.9616421902  OAC       27              0.0000000000
      3358       174  OAC       DC1           -23.7937226029       12.3065833386      -22.9432308883  OAC       27              0.0000000000
      3359       174  OAC       C2            -23.3711623641       12.0757357552      -24.4089483845  OAC       27              0.0000000000
      3360       174  OAC       DC2           -23.3746095207       12.0742136087      -24.4077877969  OAC       27              0.0000000000
      3361       174  OAC       H1            -22.3212931307       11.7127308686      -24.3909749040  OAC       27              0.0000000000
      3362       174  OAC       H2            -23.4133562404       12.9864714368      -25.0438508927  OAC       27              0.0000000000
      3363       174  OAC       H3            -24.0519553750       11.3088967181      -24.8364992818  OAC       27              0.0000000000
      3364       174  OAC       O1            -24.1163418585       13.5435139102      -22.7434261924  OAC       27              0.0000000000
      3365       174  OAC       DO1           -24.0921554451       13.5270511334      -22.7568512670  OAC       27              0.0000000000
      3366       174  OAC       O2            -23.7414407126       11.3515382338      -22.1503313450  OAC       27              0.0000000000
      3367       174  OAC       DO2           -23.7336611328       11.3194263512      -22.1306890022  OAC       27              0.0000000000
      3368       174  OAC       H             -23.9451148711       11.5922182076      -21.2340611952  OAC       27              0.0000000000
      3369       174  OAC       LPO11         -24.0787268804       13.7320648077      -23.0358875958  OAC       27              0.0000000000
      3370       174  OAC       LPO12         -24.2126330573       13.5833042184      -22.4092933799  OAC       27              0.0000000000
      3371       174  OAC       LPO21         -23.6221261634       11.0684589423      -22.3180518061  OAC       27              0.0000000000
      3372       174  OAC       LPO22         -23.8481688829       11.4492313741      -21.8316384709  OAC       27              0.0000000000
      3373       175  OAC       C1              7.0648416244      -17.2713040243       34.3129620829  OAC       28              0.0000000000
      3374       175  OAC       DC1             7.0749582881      -17.3099378948       34.3150627034  OAC       28              0.0000000000
      3375       175  OAC       C2              7.0671036644      -15.7444166884       34.3277736540  OAC       28              0.0000000000
      3376       175  OAC       DC2             7.0876511886      -15.7922892497       34.3334361217  OAC       28              0.0000000000
      3377       175  OAC       H1              7.8478956717      -15.4065215459       35.0422746785  OAC       28              0.0000000000
      3378       175  OAC       H2              6.0870016495      -15.3345961879       34.6529938855  OAC       28              0.0000000000
      3379       175  OAC       H3              7.2913429829      -15.3592445490       33.3100899352  OAC       28              0.0000000000
      3380       175  OAC       O1              6.0548027551      -17.8348644480       34.8202947514  OAC       28              0.0000000000
      3381       175  OAC       DO1             6.0492185224      -17.8362149988       34.8327748496  OAC       28              0.0000000000
      3382       175  OAC       O2              8.1274036651      -17.8334977354       33.8569245008  OAC       28              0.0000000000
      3383       175  OAC       DO2             8.1539274915      -17.8252528663       33.8515613530  OAC       28              0.0000000000
      3384       175  OAC       H               8.0869742567      -18.8006295930       33.9014490223  OAC       28              0.0000000000
      3385       175  OAC       LPO11           5.8294746502      -17.5939592776       34.9373073322  OAC       28              0.0000000000
      3386       175  OAC       LPO12           6.0886678139      -18.1825981758       34.7994521905  OAC       28              0.0000000000
      3387       175  OAC       LPO21           8.3598522692      -17.5900730346       33.7609450162  OAC       28              0.0000000000
      3388       175  OAC       LPO22           8.0928152326      -18.1816087886       33.8679850152  OAC       28              0.0000000000
      3389       176  OAC       C1             31.3886893949       35.0411360254        8.7432710446  OAC       29              0.0000000000
      3390       176  OAC       DC1            31.3843221991       35.0208155202        8.7221598734  OAC       29              0.0000000000
      3391       176  OAC       C2             32.3830185803       33.9627759777        9.2242595756  OAC       29              0.0000000000
      3392       176  OAC       DC2            32.3780719246       33.9456500576        9.2177721878  OAC       29              0.0000000000
      3393       176  OAC       H1             33.3948156018       34.4190036929        9.2736970208  OAC       29              0.0000000000
      3394       176  OAC       H2             32.4094531757       33.0963324496        8.5293510741  OAC       29              0.0000000000
      3395       176  OAC       H3             32.0927324206       33.6088648854       10.2365845650  OAC       29              0.0000000000
      3396       176  OAC       O1             30.7751596526       34.7791742780        7.6577018102  OAC       29              0.0000000000
      3397       176  OAC       DO1            30.7579439969       34.7715821022        7.6480075375  OAC       29              0.0000000000
      3398       176  OAC       O2             31.2666409815       36.0346458939        9.5326057570  OAC       29              0.0000000000
      3399       176  OAC       DO2            31.2670323199       36.0140554172        9.5231499259  OAC       29              0.0000000000
      3400       176  OAC       H              30.6553575170       36.7275235299        9.2406912015  OAC       29              0.0000000000
      3401       176  OAC       LPO11          30.8765617988       34.4674195216        7.5351188726  OAC       29              0.0000000000
      3402       176  OAC       LPO12          30.5584762336       35.0417068345        7.5763079976  OAC       29              0.0000000000
      3403       176  OAC       LPO21          31.4735303988       35.9919463835        9.8116640319  OAC       29              0.0000000000
      3404       176  OAC       LPO22          31.0368294723       36.2639379531        9.4017935946  OAC       29              0.0000000000
      3405       177  OAC       C1            -27.6792242654       12.4260873759      -22.2542277600  OAC       30              0.0000000000
      3406       177  OAC       DC1           -27.6799801645       12.4190347612      -22.2984849762  OAC       30              0.0000000000
      3407       177  OAC       C2            -28.7181831158       11.2768148716      -22.3001710518  OAC       30              0.0000000000
      3408       177  OAC       DC2           -28.7189320983       11.2582330860      -22.3183614225  OAC       30              0.0000000000
      3409       177  OAC       H1            -28.3547843199       10.4263172351      -21.6846094498  OAC       30              0.0000000000
      3410       177  OAC       H2            -28.8892919470       10.9239149047      -23.3396441785  OAC       30              0.0000000000
      3411       177  OAC       H3            -29.6781600474       11.6512002585      -21.8847184374  OAC       30              0.0000000000
      3412       177  OAC       O1            -27.2427799590       12.7508266322      -23.4032401810  OAC       30              0.0000000000
      3413       177  OAC       DO1           -27.2478487312       12.7442875479      -23.4409459261  OAC       30              0.0000000000
      3414       177  OAC       O2            -27.4049126173       12.8773969340      -21.0993134839  OAC       30              0.0000000000
      3415       177  OAC       DO2           -27.4191114621       12.8608666579      -21.1240686040  OAC       30              0.0000000000
      3416       177  OAC       H             -26.7490436437       13.5901971544      -21.0726163799  OAC       30              0.0000000000
      3417       177  OAC       LPO11         -27.3931869042       12.5521067424      -23.6489801985  OAC       30              0.0000000000
      3418       177  OAC       LPO12         -27.0101799437       13.0107028165      -23.3738871277  OAC       30              0.0000000000
      3419       177  OAC       LPO21         -27.5895833792       12.7055714287      -20.8566765011  OAC       30              0.0000000000
      3420       177  OAC       LPO22         -27.1685276464       13.1343049247      -21.1242219138  OAC       30              0.0000000000
      3421       178  OAC       C1              8.1307808544      -12.2178401149      -33.8825175768  OAC       31              0.0000000000
      3422       178  OAC       DC1             8.1077351385      -12.2221834566      -33.8730758299  OAC       31              0.0000000000
      3423       178  OAC       C2              9.4039366760      -11.9035959826      -34.7039406180  OAC       31              0.0000000000
      3424       178  OAC       DC2             9.3827216236      -11.9163940595      -34.6860878180  OAC       31              0.0000000000
      3425       178  OAC       H1              9.1630611779      -11.1460016742      -35.4800532768  OAC       31              0.0000000000
      3426       178  OAC       H2              9.7965365335      -12.8075589136      -35.2168123088  OAC       31              0.0000000000
      3427       178  OAC       H3             10.1890579573      -11.4915347363      -34.0345296046  OAC       31              0.0000000000
      3428       178  OAC       O1              7.6922798759      -13.4114984182      -33.8455517901  OAC       31              0.0000000000
      3429       178  OAC       DO1             7.6823718537      -13.4199229516      -33.8411360910  OAC       31              0.0000000000
      3430       178  OAC       O2              7.5845001824      -11.1890347743      -33.3446282541  OAC       31              0.0000000000
      3431       178  OAC       DO2             7.5822209824      -11.1799791836      -33.3466240965  OAC       31              0.0000000000
      3432       178  OAC       H               6.7732081087      -11.3874931636      -32.8533234211  OAC       31              0.0000000000
      3433       178  OAC       LPO11           7.8977102016      -13.6204746630      -34.0369344183  OAC       31              0.0000000000
      3434       178  OAC       LPO12           7.4043278815      -13.4271571912      -33.6472125561  OAC       31              0.0000000000
      3435       178  OAC       LPO21           7.7672724720      -10.9012616027      -33.4238803319  OAC       31              0.0000000000
      3436       178  OAC       LPO22           7.2997922998      -11.2848335858      -33.1650064032  OAC       31              0.0000000000
      3437       179  OAC       C1            -28.5932584204       -9.7852324868      -31.5741063627  OAC       32              0.0000000000
      3438       179  OAC       DC1           -28.5941278219       -9.7774339946      -31.5691439179  OAC       32              0.0000000000
      3439       179  OAC       C2            -29.6603269541      -10.8222534754      -31.1423885639  OAC       32              0.0000000000
      3440       179  OAC       DC2           -29.6640545121      -10.8193971727      -31.1477641494  OAC       32              0.0000000000
      3441       179  OAC       H1            -30.3103654371      -11.0711261225      -32.0083177624  OAC       32              0.0000000000
      3442       179  OAC       H2            -30.2953712446      -10.4281139281      -30.3203826233  OAC       32              0.0000000000
      3443       179  OAC       H3            -29.1475822390      -11.7418515052      -30.7877714151  OAC       32              0.0000000000
      3444       179  OAC       O1            -28.6023777906       -8.6841010550      -30.9438702366  OAC       32              0.0000000000
      3445       179  OAC       DO1           -28.6087747818       -8.6777220926      -30.9367529193  OAC       32              0.0000000000
      3446       179  OAC       O2            -27.8189509120      -10.1664686688      -32.5165763637  OAC       32              0.0000000000
      3447       179  OAC       DO2           -27.8242562820      -10.1718080360      -32.5123380931  OAC       32              0.0000000000
      3448       179  OAC       H             -27.1769649267       -9.5062000848      -32.8180069391  OAC       32              0.0000000000
      3449       179  OAC       LPO11         -28.8562981668       -8.6861377603      -30.7029962148  OAC       32              0.0000000000
      3450       179  OAC       LPO12         -28.3501782227       -8.4742828809      -31.0658198646  OAC       32              0.0000000000
      3451       179  OAC       LPO21         -27.9033603546      -10.4909581947      -32.6169835028  OAC       32              0.0000000000
      3452       179  OAC       LPO22         -27.5894803217       -9.9134011005      -32.5927344501  OAC       32              0.0000000000
      3453       180  OAC       C1              4.2210311192       11.4320473405       17.4220652319  OAC       33              0.0000000000
      3454       180  OAC       DC1             4.2331761340       11.4370827343       17.4227989032  OAC       33              0.0000000000
      3455       180  OAC       C2              5.6359285225       11.1952213345       17.9784761784  OAC       33              0.0000000000
      3456       180  OAC       DC2             5.6559734973       11.2079599949       17.9685317691  OAC       33              0.0000000000
      3457       180  OAC       H1              5.5949109830       10.3864030377       18.7390361854  OAC       33              0.0000000000
      3458       180  OAC       H2              6.0602308644       12.1066793036       18.4512688334  OAC       33              0.0000000000
      3459       180  OAC       H3              6.2989298666       10.8900919918       17.1408328758  OAC       33              0.0000000000
      3460       180  OAC       O1              3.7891853391       12.6168019951       17.5334966847  OAC       33              0.0000000000
      3461       180  OAC       DO1             3.7872125074       12.6158567363       17.5259246603  OAC       33              0.0000000000
      3462       180  OAC       O2              3.6946259338       10.4410613527       16.8072206609  OAC       33              0.0000000000
      3463       180  OAC       DO2             3.6982719431       10.4515774751       16.8010557563  OAC       33              0.0000000000
      3464       180  OAC       H               2.7774436547       10.5829069989       16.5286215231  OAC       33              0.0000000000
      3465       180  OAC       LPO11           4.0297962175       12.8177769710       17.6891098726  OAC       33              0.0000000000
      3466       180  OAC       LPO12           3.4669026039       12.6398910646       17.3989577184  OAC       33              0.0000000000
      3467       180  OAC       LPO21           3.9158933798       10.1698814672       16.8057417927  OAC       33              0.0000000000
      3468       180  OAC       LPO22           3.3748620761       10.5268164618       16.6936551001  OAC       33              0.0000000000
      3469       181  OAC       C1             30.3551395349      -25.8695707519      -19.8066433607  OAC       34              0.0000000000
      3470       181  OAC       DC1            30.3503876073      -25.8630771274      -19.7988038641  OAC       34              0.0000000000
      3471       181  OAC       C2             30.8663282673      -26.4519934031      -21.1426341754  OAC       34              0.0000000000
      3472       181  OAC       DC2            30.8709315669      -26.4485600084      -21.1295416094  OAC       34              0.0000000000
      3473       181  OAC       H1             31.9583696097      -26.6388886546      -21.0599487837  OAC       34              0.0000000000
      3474       181  OAC       H2             30.6879132336      -25.7434881169      -21.9795985335  OAC       34              0.0000000000
      3475       181  OAC       H3             30.3426766325      -27.4059938848      -21.3662254238  OAC       34              0.0000000000
      3476       181  OAC       O1             29.9708471890      -24.6681050211      -19.8113690431  OAC       34              0.0000000000
      3477       181  OAC       DO1            29.9672407327      -24.6606446707      -19.8040885424  OAC       34              0.0000000000
      3478       181  OAC       O2             30.3814198703      -26.6481331245      -18.7958759405  OAC       34              0.0000000000
      3479       181  OAC       DO2            30.3880952636      -26.6461689566      -18.7897480944  OAC       34              0.0000000000
      3480       181  OAC       H              30.0883692217      -26.2352821507      -17.9696578151  OAC       34              0.0000000000
      3481       181  OAC       LPO11          30.0053000292      -24.5326650958      -20.1322569183  OAC       34              0.0000000000
      3482       181  OAC       LPO12          29.8634576744      -24.5755130440      -19.4913780777  OAC       34              0.0000000000
      3483       181  OAC       LPO21          30.5090579257      -26.9605329641      -18.8886922488  OAC       34              0.0000000000
      3484       181  OAC       LPO22          30.2587122659      -26.4817992886      -18.5134296645  OAC       34              0.0000000000
      3485       182  OAC       C1            -14.5647435779       28.0341341046      -18.8389437201  OAC       35              0.0000000000
      3486       182  OAC       DC1           -14.5477276577       28.0128887023      -18.8544590822  OAC       35              0.0000000000
      3487       182  OAC       C2            -14.6595057592       29.5502372172      -18.5358991851  OAC       35              0.0000000000
      3488       182  OAC       DC2           -14.6540004400       29.5217966489      -18.5394606215  OAC       35              0.0000000000
      3489       182  OAC       H1            -13.8143596390       29.8603104251      -17.8848203557  OAC       35              0.0000000000
      3490       182  OAC       H2            -15.6156149782       29.8034686210      -18.0298853340  OAC       35              0.0000000000
      3491       182  OAC       H3            -14.6048265082       30.1215262399      -19.4871930587  OAC       35              0.0000000000
      3492       182  OAC       O1            -15.5189163668       27.2794449467      -18.4666303712  OAC       35              0.0000000000
      3493       182  OAC       DO1           -15.5166832463       27.2770187163      -18.4723499337  OAC       35              0.0000000000
      3494       182  OAC       O2            -13.5345940828       27.6776355046      -19.5210965863  OAC       35              0.0000000000
      3495       182  OAC       DO2           -13.5263818086       27.6706591271      -19.5440169745  OAC       35              0.0000000000
      3496       182  OAC       H             -13.4570530203       26.7199872967      -19.6470263028  OAC       35              0.0000000000
      3497       182  OAC       LPO11         -15.7656336280       27.4687858921      -18.3060669897  OAC       35              0.0000000000
      3498       182  OAC       LPO12         -15.4517569900       26.9480852915      -18.5571311832  OAC       35              0.0000000000
      3499       182  OAC       LPO21         -13.3375207337       27.9572107469      -19.5952570809  OAC       35              0.0000000000
      3500       182  OAC       LPO22         -13.5398753933       27.3316877663      -19.5739385215  OAC       35              0.0000000000
      3501       183  OAC       C1            -14.1368811597      -24.6866749466       18.7803407981  OAC       36              0.0000000000
      3502       183  OAC       DC1           -14.1070918439      -24.6910152062       18.7788591450  OAC       36              0.0000000000
      3503       183  OAC       C2            -15.4898066345      -25.2257256492       19.2874921632  OAC       36              0.0000000000
      3504       183  OAC       DC2           -15.4554197254      -25.2255226737       19.2914873169  OAC       36              0.0000000000
      3505       183  OAC       H1            -15.9696654000      -25.8443212170       18.4992053566  OAC       36              0.0000000000
      3506       183  OAC       H2            -16.1744069733      -24.3996308946       19.5759550419  OAC       36              0.0000000000
      3507       183  OAC       H3            -15.3316058258      -25.8559081243       20.1886933363  OAC       36              0.0000000000
      3508       183  OAC       O1            -13.9835817320      -23.4349268930       18.6471477692  OAC       36              0.0000000000
      3509       183  OAC       DO1           -13.9647351387      -23.4312229917       18.6479085166  OAC       36              0.0000000000
      3510       183  OAC       O2            -13.2091286652      -25.5718973613       18.6483676829  OAC       36              0.0000000000
      3511       183  OAC       DO2           -13.1831640246      -25.5779908647       18.6511100016  OAC       36              0.0000000000
      3512       183  OAC       H             -12.3672493761      -25.1997745649       18.3455065154  OAC       36              0.0000000000
      3513       183  OAC       LPO11         -14.2770978485      -23.2679225294       18.7391142407  OAC       36              0.0000000000
      3514       183  OAC       LPO12         -13.6611233980      -23.3656070577       18.5300350744  OAC       36              0.0000000000
      3515       183  OAC       LPO21         -13.3305975973      -25.8871540132       18.7397927450  OAC       36              0.0000000000
      3516       183  OAC       LPO22         -12.9153548192      -25.4210468123       18.5324321869  OAC       36              0.0000000000
      3517       184  OAC       C1             23.3289673817       -6.1471019453      -27.4147030851  OAC       37              0.0000000000
      3518       184  OAC       DC1            23.3267973299       -6.1373310488      -27.4120054026  OAC       37              0.0000000000
      3519       184  OAC       C2             21.9185074069       -5.8055175174      -26.9102147787  OAC       37              0.0000000000
      3520       184  OAC       DC2            21.9229906438       -5.7835042531      -26.8897894381  OAC       37              0.0000000000
      3521       184  OAC       H1             21.2084596531       -6.4207672332      -27.5031911492  OAC       37              0.0000000000
      3522       184  OAC       H2             21.6693761071       -4.7274256162      -27.0100769267  OAC       37              0.0000000000
      3523       184  OAC       H3             21.7961601765       -6.1379077098      -25.8571863294  OAC       37              0.0000000000
      3524       184  OAC       O1             24.0766658609       -5.1553187170      -27.6614234322  OAC       37              0.0000000000
      3525       184  OAC       DO1            24.0687871877       -5.1450672574      -27.6582870451  OAC       37              0.0000000000
      3526       184  OAC       O2             23.5850106152       -7.3978056128      -27.4856696587  OAC       37              0.0000000000
      3527       184  OAC       DO2            23.5803030224       -7.3890556352      -27.4782973404  OAC       37              0.0000000000
      3528       184  OAC       H              24.4930985738       -7.6104205652      -27.7485995761  OAC       37              0.0000000000
      3529       184  OAC       LPO11          23.9055780556       -4.8571430236      -27.5956950612  OAC       37              0.0000000000
      3530       184  OAC       LPO12          24.3891160618       -5.2659845290      -27.7737975839  OAC       37              0.0000000000
      3531       184  OAC       LPO21          23.3068053404       -7.5830327669      -27.3817816111  OAC       37              0.0000000000
      3532       184  OAC       LPO22          23.9111587053       -7.4467664672      -27.6028458424  OAC       37              0.0000000000
      3533       185  OAC       C1            -19.2539686586       -7.4679775921      -16.9942947643  OAC       38              0.0000000000
      3534       185  OAC       DC1           -19.2662563048       -7.4869908094      -16.9998937839  OAC       38              0.0000000000
      3535       185  OAC       C2            -20.4402812155       -6.5730430391      -16.5694249683  OAC       38              0.0000000000
      3536       185  OAC       DC2           -20.4446633359       -6.5890435696      -16.5718760028  OAC       38              0.0000000000
      3537       185  OAC       H1            -21.1759396197       -6.5305136481      -17.4008808982  OAC       38              0.0000000000
      3538       185  OAC       H2            -20.1124203250       -5.5410829738      -16.3206546699  OAC       38              0.0000000000
      3539       185  OAC       H3            -20.9409505504       -7.0175214768      -15.6828077251  OAC       38              0.0000000000
      3540       185  OAC       O1            -18.0738719547       -7.0320019104      -16.9279915421  OAC       38              0.0000000000
      3541       185  OAC       DO1           -18.0839163253       -7.0444600821      -16.9304003936  OAC       38              0.0000000000
      3542       185  OAC       O2            -19.6095523918       -8.6282679684      -17.4012232553  OAC       38              0.0000000000
      3543       185  OAC       DO2           -19.6101520893       -8.6441617639      -17.4055119563  OAC       38              0.0000000000
      3544       185  OAC       H             -18.8591105872       -9.2088239798      -17.5980806035  OAC       38              0.0000000000
      3545       185  OAC       LPO11         -18.0742018664       -6.7036177790      -16.8068975562  OAC       38              0.0000000000
      3546       185  OAC       LPO12         -17.8492750843       -7.2775327131      -17.0364851860  OAC       38              0.0000000000
      3547       185  OAC       LPO21         -19.9578898102       -8.6588439261      -17.3861848445  OAC       38              0.0000000000
      3548       185  OAC       LPO22         -19.3277261023       -8.8147216873      -17.4923767150  OAC       38              0.0000000000
      3549       186  OAC       C1             -1.0151219857      -31.4874042768       12.1759847539  OAC       39              0.0000000000
      3550       186  OAC       DC1            -1.0209260651      -31.4727263433       12.1770811844  OAC       39              0.0000000000
      3551       186  OAC       C2              0.3766074703      -32.1313677241       12.3594310968  OAC       39              0.0000000000
      3552       186  OAC       DC2             0.3652255612      -32.1020859702       12.3639080740  OAC       39              0.0000000000
      3553       186  OAC       H1              1.0968473866      -31.5677516288       11.7286281466  OAC       39              0.0000000000
      3554       186  OAC       H2              0.3908858824      -33.1920542472       12.0291869035  OAC       39              0.0000000000
      3555       186  OAC       H3              0.6944891139      -32.1009441195       13.4235488840  OAC       39              0.0000000000
      3556       186  OAC       O1             -1.9316284433      -32.1182262943       11.5719481423  OAC       39              0.0000000000
      3557       186  OAC       DO1            -1.9282450016      -32.1179642503       11.5772135016  OAC       39              0.0000000000
      3558       186  OAC       O2             -1.0949633537      -30.3238636197       12.6999283364  OAC       39              0.0000000000
      3559       186  OAC       DO2            -1.0975064207      -30.3127135441       12.7126174796  OAC       39              0.0000000000
      3560       186  OAC       H              -1.9818104982      -29.9354145596       12.6602991805  OAC       39              0.0000000000
      3561       186  OAC       LPO11          -1.8137044282      -32.4312937654       11.4690759634  OAC       39              0.0000000000
      3562       186  OAC       LPO12          -2.2228722657      -31.9244530733       11.5605914381  OAC       39              0.0000000000
      3563       186  OAC       LPO21          -0.7896327718      -30.2380148816       12.8479257347  OAC       39              0.0000000000
      3564       186  OAC       LPO22          -1.4152444530      -30.1918361464       12.6500408253  OAC       39              0.0000000000
      3565       187  OAC       C1             25.0755821885       13.3963619087      -11.2947746297  OAC       40              0.0000000000
      3566       187  OAC       DC1            25.0701391474       13.3873927377      -11.2958769149  OAC       40              0.0000000000
      3567       187  OAC       C2             24.3182567654       14.7374375110      -11.1489103881  OAC       40              0.0000000000
      3568       187  OAC       DC2            24.3098092097       14.7253146308      -11.1579149185  OAC       40              0.0000000000
      3569       187  OAC       H1             23.3224591566       14.6611486243      -11.6356219351  OAC       40              0.0000000000
      3570       187  OAC       H2             24.8815090377       15.5747216929      -11.6136932157  OAC       40              0.0000000000
      3571       187  OAC       H3             24.1864250360       14.9529601288      -10.0670178812  OAC       40              0.0000000000
      3572       187  OAC       O1             26.2329254810       13.4365853447      -11.8079277332  OAC       40              0.0000000000
      3573       187  OAC       DO1            26.2272763501       13.4391512384      -11.8095909621  OAC       40              0.0000000000
      3574       187  OAC       O2             24.4022915871       12.3675293144      -10.9265958688  OAC       40              0.0000000000
      3575       187  OAC       DO2            24.3920602657       12.3637557777      -10.9257452497  OAC       40              0.0000000000
      3576       187  OAC       H              24.8925882427       11.5355437934      -11.0064099175  OAC       40              0.0000000000
      3577       187  OAC       LPO11          26.3160011988       13.7664830745      -11.8901829032  OAC       40              0.0000000000
      3578       187  OAC       LPO12          26.3686044088       13.1142904269      -11.8226659324  OAC       40              0.0000000000
      3579       187  OAC       LPO21          24.0850954224       12.4654552440      -10.8157035544  OAC       40              0.0000000000
      3580       187  OAC       LPO22          24.5938973668       12.0776929654      -10.9688109846  OAC       40              0.0000000000
      3581       188  OAC       C1              4.9552270486       24.6860330724        9.7169045546  OAC       41              0.0000000000
      3582       188  OAC       DC1             4.9498518626       24.6740999829        9.7143285976  OAC       41              0.0000000000
      3583       188  OAC       C2              5.4992768898       26.0271554176       10.2615707304  OAC       41              0.0000000000
      3584       188  OAC       DC2             5.4936389301       26.0083534216       10.2630577480  OAC       41              0.0000000000
      3585       188  OAC       H1              6.4501540924       25.8556841409       10.8099785615  OAC       41              0.0000000000
      3586       188  OAC       H2              4.7727200451       26.5206143457       10.9419635866  OAC       41              0.0000000000
      3587       188  OAC       H3              5.6937710264       26.7079804623        9.4054338901  OAC       41              0.0000000000
      3588       188  OAC       O1              3.7959119514       24.3305492300       10.1018612897  OAC       41              0.0000000000
      3589       188  OAC       DO1             3.7901960082       24.3249615307       10.1018133842  OAC       41              0.0000000000
      3590       188  OAC       O2              5.7487848439       24.0452742315        8.9372972392  OAC       41              0.0000000000
      3591       188  OAC       DO2             5.7475340244       24.0388834577        8.9354229580  OAC       41              0.0000000000
      3592       188  OAC       H               5.3931867863       23.2088568883        8.6012659145  OAC       41              0.0000000000
      3593       188  OAC       LPO11           3.6631641632       24.5705344548       10.3193127018  OAC       41              0.0000000000
      3594       188  OAC       LPO12           3.7104946725       24.0236674761        9.9568527467  OAC       41              0.0000000000
      3595       188  OAC       LPO21           6.0475317586       24.2233209459        8.8979316650  OAC       41              0.0000000000
      3596       188  OAC       LPO22           5.5980296338       23.7477315034        8.8312727533  OAC       41              0.0000000000
      3597       189  OAC       C1             34.8766449463      -35.1966482415       -9.4369697356  OAC       42              0.0000000000
      3598       189  OAC       DC1            34.8842137647      -35.1876084214       -9.4372036096  OAC       42              0.0000000000
      3599       189  OAC       C2             35.5025444866      -36.6079530759       -9.5134393494  OAC       42              0.0000000000
      3600       189  OAC       DC2            35.5016296380      -36.5932544205       -9.5010765651  OAC       42              0.0000000000
      3601       189  OAC       H1             34.8932341672      -37.3391499496       -8.9403659976  OAC       42              0.0000000000
      3602       189  OAC       H2             36.5227109817      -36.6313775664       -9.0740845757  OAC       42              0.0000000000
      3603       189  OAC       H3             35.5597267709      -36.9271197823      -10.5760699534  OAC       42              0.0000000000
      3604       189  OAC       O1             35.6065484181      -34.1895892821       -9.1844386861  OAC       42              0.0000000000
      3605       189  OAC       DO1            35.6172603044      -34.1859114865       -9.1871673180  OAC       42              0.0000000000
      3606       189  OAC       O2             33.6133254808      -35.2268219875       -9.5951234403  OAC       42              0.0000000000
      3607       189  OAC       DO2            33.6205144386      -35.2297830411       -9.5963575478  OAC       42              0.0000000000
      3608       189  OAC       H              33.1941542486      -34.3539274669       -9.6313399284  OAC       42              0.0000000000
      3609       189  OAC       LPO11          35.9389481117      -34.2904175204       -9.1414955837  OAC       42              0.0000000000
      3610       189  OAC       LPO12          35.4118404975      -33.8987856032       -9.1797433689  OAC       42              0.0000000000
      3611       189  OAC       LPO21          33.5066443426      -35.5565650807       -9.6439970246  OAC       42              0.0000000000
      3612       189  OAC       LPO22          33.4825135206      -34.9027512967       -9.5759813802  OAC       42              0.0000000000
      3613       190  OAC       C1             32.7304922321       -7.2692583514      -19.9606534919  OAC       43              0.0000000000
      3614       190  OAC       DC1            32.7291554565       -7.2818296940      -19.9565446955  OAC       43              0.0000000000
      3615       190  OAC       C2             33.5940498047       -6.3394463268      -19.0903976469  OAC       43              0.0000000000
      3616       190  OAC       DC2            33.5842985295       -6.3517753959      -19.0829238470  OAC       43              0.0000000000
      3617       190  OAC       H1             33.5558196063       -6.6516562211      -18.0248534505  OAC       43              0.0000000000
      3618       190  OAC       H2             33.3085829848       -5.2689254902      -19.1729496499  OAC       43              0.0000000000
      3619       190  OAC       H3             34.6295172810       -6.4540494231      -19.4763953650  OAC       43              0.0000000000
      3620       190  OAC       O1             31.8113634908       -6.7333224048      -20.6488994620  OAC       43              0.0000000000
      3621       190  OAC       DO1            31.8078208939       -6.7416775398      -20.6399852763  OAC       43              0.0000000000
      3622       190  OAC       O2             32.9730085424       -8.5225088847      -19.8075753034  OAC       43              0.0000000000
      3623       190  OAC       DO2            32.9699776730       -8.5354586562      -19.8049429047  OAC       43              0.0000000000
      3624       190  OAC       H              32.4338613947       -9.0962089541      -20.3725085591  OAC       43              0.0000000000
      3625       190  OAC       LPO11          31.8091142827       -6.3872301245      -20.5967930844  OAC       43              0.0000000000
      3626       190  OAC       LPO12          31.6399554750       -6.9781566736      -20.8310408163  OAC       43              0.0000000000
      3627       190  OAC       LPO21          33.2269209130       -8.5672643238      -19.5708783268  OAC       43              0.0000000000
      3628       190  OAC       LPO22          32.7642577896       -8.7111349505      -20.0157659143  OAC       43              0.0000000000
      3629       191  OAC       C1             24.7694962755       22.2196696119       15.5692815272  OAC       44              0.0000000000
      3630       191  OAC       DC1            24.7689621978       22.2207875795       15.5683785040  OAC       44              0.0000000000
      3631       191  OAC       C2             26.2295564803       22.7434022159       15.5857242909  OAC       44              0.0000000000
      3632       191  OAC       DC2            26.2318793278       22.7488700407       15.5842511592  OAC       44              0.0000000000
      3633       191  OAC       H1             26.9190031785       21.8838279238       15.7275561893  OAC       44              0.0000000000
      3634       191  OAC       H2             26.3874641676       23.4713218340       16.4100538317  OAC       44              0.0000000000
      3635       191  OAC       H3             26.4650782984       23.2391643056       14.6197685861  OAC       44              0.0000000000
      3636       191  OAC       O1             24.0137661258       22.5912777083       16.5216155353  OAC       44              0.0000000000
      3637       191  OAC       DO1            24.0128365649       22.5869940206       16.5249483185  OAC       44              0.0000000000
      3638       191  OAC       O2             24.4813980758       21.4660705100       14.5714721176  OAC       44              0.0000000000
      3639       191  OAC       DO2            24.4780340913       21.4627217196       14.5743607841  OAC       44              0.0000000000
      3640       191  OAC       H              23.5943637237       21.0773666775       14.6037271756  OAC       44              0.0000000000
      3641       191  OAC       LPO11          24.1904991657       22.7996512445       16.7403525967  OAC       44              0.0000000000
      3642       191  OAC       LPO12          23.6947103767       22.4528871826       16.4822265603  OAC       44              0.0000000000
      3643       191  OAC       LPO21          24.7612914345       21.4291529191       14.3645982448  OAC       44              0.0000000000
      3644       191  OAC       LPO22          24.1477514730       21.3623818889       14.5921751191  OAC       44              0.0000000000
      3645       192  OAC       C1              9.6524903342      -18.7935605208      -13.6186359715  OAC       45              0.0000000000
      3646       192  OAC       DC1             9.6788306247      -18.7985043395      -13.6039938822  OAC       45              0.0000000000
      3647       192  OAC       C2              9.9691656522      -19.7992987154      -12.4958094173  OAC       45              0.0000000000
      3648       192  OAC       DC2            10.0080761533      -19.8208825496      -12.4835070657  OAC       45              0.0000000000
      3649       192  OAC       H1             10.5545419622      -20.6271895664      -12.9499595187  OAC       45              0.0000000000
      3650       192  OAC       H2              9.0394672362      -20.2171078297      -12.0537490128  OAC       45              0.0000000000
      3651       192  OAC       H3             10.5735661693      -19.3037911700      -11.7061935055  OAC       45              0.0000000000
      3652       192  OAC       O1              8.4473991495      -18.6444721926      -13.9371026880  OAC       45              0.0000000000
      3653       192  OAC       DO1             8.4653469612      -18.6558444398      -13.9277220593  OAC       45              0.0000000000
      3654       192  OAC       O2             10.7137036810      -18.2454286042      -14.0795724525  OAC       45              0.0000000000
      3655       192  OAC       DO2            10.7321701741      -18.2435213487      -14.0622063197  OAC       45              0.0000000000
      3656       192  OAC       H              10.5457704884      -17.6410439068      -14.8181376699  OAC       45              0.0000000000
      3657       192  OAC       LPO11           8.2451365382      -18.8518633986      -13.7406880150  OAC       45              0.0000000000
      3658       192  OAC       LPO12           8.4198320073      -18.4086475087      -14.1942539492  OAC       45              0.0000000000
      3659       192  OAC       LPO21          10.9948760729      -18.3691304355      -13.9118228089  OAC       45              0.0000000000
      3660       192  OAC       LPO22          10.6309815690      -18.0192243565      -14.3335186880  OAC       45              0.0000000000
      3661       193  OAC       C1             10.4387728043      -37.1499644276       10.4182585436  OAC       46              0.0000000000
      3662       193  OAC       DC1            10.4499165928      -37.1390608983       10.4410951742  OAC       46              0.0000000000
      3663       193  OAC       C2             11.7499903937      -36.6773755394        9.7479173328  OAC       46              0.0000000000
      3664       193  OAC       DC2            11.7530885132      -36.6742437354        9.7547158129  OAC       46              0.0000000000
      3665       193  OAC       H1             12.0493962156      -35.6584646909       10.0742573967  OAC       46              0.0000000000
      3666       193  OAC       H2             11.6903570701      -36.7193994217        8.6393151228  OAC       46              0.0000000000
      3667       193  OAC       H3             12.5788924888      -37.3268593975       10.1020543640  OAC       46              0.0000000000
      3668       193  OAC       O1              9.6306518542      -37.8753812419        9.7793104243  OAC       46              0.0000000000
      3669       193  OAC       DO1             9.6404179082      -37.8652477667        9.7933241584  OAC       46              0.0000000000
      3670       193  OAC       O2             10.3281703190      -36.7607230410       11.6285587994  OAC       46              0.0000000000
      3671       193  OAC       DO2            10.3271300403      -36.7655253236       11.6459952719  OAC       46              0.0000000000
      3672       193  OAC       H               9.5742082240      -37.1468494348       12.0990995174  OAC       46              0.0000000000
      3673       193  OAC       LPO11           9.7540700006      -37.9375573452        9.4577484655  OAC       46              0.0000000000
      3674       193  OAC       LPO12           9.3536789623      -37.9510448943        9.9794629382  OAC       46              0.0000000000
      3675       193  OAC       LPO21          10.6086751841      -36.5723436004       11.7198287672  OAC       46              0.0000000000
      3676       193  OAC       LPO22          10.0269157646      -36.8760784638       11.7643484155  OAC       46              0.0000000000
      3677       194  OAC       C1             29.9701964145      -31.2320491655        9.4728190515  OAC       47              0.0000000000
      3678       194  OAC       DC1            29.9551026760      -31.2407709063        9.4743665095  OAC       47              0.0000000000
      3679       194  OAC       C2             31.1781645881      -30.3325711639        9.1518809042  OAC       47              0.0000000000
      3680       194  OAC       DC2            31.1576682484      -30.3380487397        9.1639287715  OAC       47              0.0000000000
      3681       194  OAC       H1             30.8929871283      -29.2736691999        9.3299860636  OAC       47              0.0000000000
      3682       194  OAC       H2             31.4943967517      -30.4400367631        8.0922727862  OAC       47              0.0000000000
      3683       194  OAC       H3             32.0325428940      -30.6045144813        9.8079339081  OAC       47              0.0000000000
      3684       194  OAC       O1             29.4586964140      -31.8626620469        8.5041525510  OAC       47              0.0000000000
      3685       194  OAC       DO1            29.4498685122      -31.8693554750        8.5005527563  OAC       47              0.0000000000
      3686       194  OAC       O2             29.5701879065      -31.2316058276       10.6909998743  OAC       47              0.0000000000
      3687       194  OAC       DO2            29.5655342798      -31.2267516067       10.6939940597  OAC       47              0.0000000000
      3688       194  OAC       H              28.8129179137      -31.8136364998       10.8545341354  OAC       47              0.0000000000
      3689       194  OAC       LPO11          29.6321120961      -31.7898534648        8.2089815640  OAC       47              0.0000000000
      3690       194  OAC       LPO12          29.1883952583      -32.0549177995        8.6158441389  OAC       47              0.0000000000
      3691       194  OAC       LPO21          29.7699130619      -31.0172755384       10.8825002385  OAC       47              0.0000000000
      3692       194  OAC       LPO22          29.2957711433      -31.4458533344       10.7269643828  OAC       47              0.0000000000
      3693       195  OAC       C1             -2.8174134134       27.5598374483       -8.0580276721  OAC       48              0.0000000000
      3694       195  OAC       DC1            -2.8152648024       27.5681009069       -8.0597038942  OAC       48              0.0000000000
      3695       195  OAC       C2             -3.2490770579       28.3854745797       -6.8269688566  OAC       48              0.0000000000
      3696       195  OAC       DC2            -3.2502074016       28.3977658054       -6.8260075984  OAC       48              0.0000000000
      3697       195  OAC       H1             -2.3522007706       28.7708764764       -6.2964980244  OAC       48              0.0000000000
      3698       195  OAC       H2             -3.8489147303       27.7796616332       -6.1145739938  OAC       48              0.0000000000
      3699       195  OAC       H3             -3.8656247787       29.2388091930       -7.1819476546  OAC       48              0.0000000000
      3700       195  OAC       O1             -3.4338189961       26.4732439079       -8.2606595127  OAC       48              0.0000000000
      3701       195  OAC       DO1            -3.4341129119       26.4785327134       -8.2594424119  OAC       48              0.0000000000
      3702       195  OAC       O2             -1.8946592481       28.0957111313       -8.7670718049  OAC       48              0.0000000000
      3703       195  OAC       DO2            -1.8950548670       28.1056385118       -8.7678216928  OAC       48              0.0000000000
      3704       195  OAC       H              -1.6578210789       27.5810824142       -9.5532180796  OAC       48              0.0000000000
      3705       195  OAC       LPO11          -3.6759969750       26.4249484409       -8.0126325496  OAC       48              0.0000000000
      3706       195  OAC       LPO12          -3.3082482693       26.3159852878       -8.5470189354  OAC       48              0.0000000000
      3707       195  OAC       LPO21          -1.8004051159       28.4029737115       -8.6284865772  OAC       48              0.0000000000
      3708       195  OAC       LPO22          -1.8164760681       27.8885885677       -9.0381578319  OAC       48              0.0000000000
      3709       196  OAC       C1             26.2431791606        0.6114123890      -21.7237716957  OAC       49              0.0000000000
      3710       196  OAC       DC1            26.2477689587        0.6134468175      -21.7335282139  OAC       49              0.0000000000
      3711       196  OAC       C2             24.9897744610        0.3480384514      -20.8490368609  OAC       49              0.0000000000
      3712       196  OAC       DC2            24.9950161436        0.3291770407      -20.8572014580  OAC       49              0.0000000000
      3713       196  OAC       H1             24.5096363454       -0.6131416119      -21.1317403731  OAC       49              0.0000000000
      3714       196  OAC       H2             24.2450390411        1.1649780895      -20.9599412503  OAC       49              0.0000000000
      3715       196  OAC       H3             25.3082356145        0.2970809076      -19.7858779720  OAC       49              0.0000000000
      3716       196  OAC       O1             26.3648272440        1.7436438186      -22.2920234127  OAC       49              0.0000000000
      3717       196  OAC       DO1            26.3775054921        1.7496882842      -22.3012568452  OAC       49              0.0000000000
      3718       196  OAC       O2             27.0571225630       -0.3802148816      -21.7828761478  OAC       49              0.0000000000
      3719       196  OAC       DO2            27.0648162985       -0.3799802546      -21.7775403392  OAC       49              0.0000000000
      3720       196  OAC       H              27.8279185465       -0.2361344816      -22.3521523463  OAC       49              0.0000000000
      3721       196  OAC       LPO11          26.0904759433        1.9466346183      -22.2143954601  OAC       49              0.0000000000
      3722       196  OAC       LPO12          26.6620631574        1.7536500262      -22.4765516967  OAC       49              0.0000000000
      3723       196  OAC       LPO21          26.9348921290       -0.6469500091      -21.5920566185  OAC       49              0.0000000000
      3724       196  OAC       LPO22          27.3310899037       -0.2983408321      -21.9847140437  OAC       49              0.0000000000
      3725       197  OAC       C1             24.0375904849       -9.4127679173       20.5622048841  OAC       50              0.0000000000
      3726       197  OAC       DC1            24.0310372473       -9.4145690649       20.5622841055  OAC       50              0.0000000000
      3727       197  OAC       C2             24.1064173457      -10.9386616036       20.3047600405  OAC       50              0.0000000000
      3728       197  OAC       DC2            24.1001874573      -10.9492216814       20.3023259134  OAC       50              0.0000000000
      3729       197  OAC       H1             25.1600109367      -11.2207578599       20.0933759183  OAC       50              0.0000000000
      3730       197  OAC       H2             23.4640666315      -11.2346478164       19.4479644269  OAC       50              0.0000000000
      3731       197  OAC       H3             23.7532605557      -11.4902821147       21.2021540978  OAC       50              0.0000000000
      3732       197  OAC       O1             23.2612083747       -8.7422163935       19.8129820106  OAC       50              0.0000000000
      3733       197  OAC       DO1            23.2593289162       -8.7458781807       19.8079762340  OAC       50              0.0000000000
      3734       197  OAC       O2             24.7891105050       -9.0189399824       21.5212229339  OAC       50              0.0000000000
      3735       197  OAC       DO2            24.7931713596       -9.0381886271       21.5221747851  OAC       50              0.0000000000
      3736       197  OAC       H              24.7163845474       -8.0729623861       21.7181958315  OAC       50              0.0000000000
      3737       197  OAC       LPO11          23.1033643354       -8.9543792215       19.5836957405  OAC       50              0.0000000000
      3738       197  OAC       LPO12          23.2727309630       -8.4036775573       19.9010654162  OAC       50              0.0000000000
      3739       197  OAC       LPO21          24.9599149668       -9.2915261691       21.6591454000  OAC       50              0.0000000000
      3740       197  OAC       LPO22          24.7588206706       -8.6727182517       21.5626118105  OAC       50              0.0000000000
      3741       198  OAC       C1            -31.2721767220      -25.2907065366       34.7621679598  OAC       51              0.0000000000
      3742       198  OAC       DC1           -31.2752220841      -25.2894892568       34.7649724400  OAC       51              0.0000000000
      3743       198  OAC       C2            -32.1636945038      -24.4655835832       35.7254411170  OAC       51              0.0000000000
      3744       198  OAC       DC2           -32.1698036009      -24.4608573134       35.7277669895  OAC       51              0.0000000000
      3745       198  OAC       H1            -33.2158504297      -24.8162551879       35.6597270897  OAC       51              0.0000000000
      3746       198  OAC       H2            -32.1315068278      -23.3819127601       35.4826603477  OAC       51              0.0000000000
      3747       198  OAC       H3            -31.7859152558      -24.6128713418       36.7598057318  OAC       51              0.0000000000
      3748       198  OAC       O1            -30.5466076131      -24.6180516713       33.9727142824  OAC       51              0.0000000000
      3749       198  OAC       DO1           -30.5499508929      -24.6123928844       33.9751793051  OAC       51              0.0000000000
      3750       198  OAC       O2            -31.3658173781      -26.5630311345       34.8808530629  OAC       51              0.0000000000
      3751       198  OAC       DO2           -31.3668064269      -26.5623782365       34.8852566307  OAC       51              0.0000000000
      3752       198  OAC       H             -30.8108462729      -27.0569578963       34.2587562646  OAC       51              0.0000000000
      3753       198  OAC       LPO11         -30.5970508877      -24.2758311456       34.0260114474  OAC       51              0.0000000000
      3754       198  OAC       LPO12         -30.3589256300      -24.8330420217       33.7700948794  OAC       51              0.0000000000
      3755       198  OAC       LPO21         -31.5953460734      -26.6432015294       35.1326253525  OAC       51              0.0000000000
      3756       198  OAC       LPO22         -31.1537860197      -26.7206024760       34.6512578203  OAC       51              0.0000000000
      3757       199  OAC       C1              2.1206015478      -36.7559184638        4.4046599358  OAC       52              0.0000000000
      3758       199  OAC       DC1             2.1397638089      -36.7495759120        4.4083108844  OAC       52              0.0000000000
      3759       199  OAC       C2              0.9330451258      -36.6303579766        5.3852594259  OAC       52              0.0000000000
      3760       199  OAC       DC2             0.9398707729      -36.6340469054        5.3775609087  OAC       52              0.0000000000
      3761       199  OAC       H1              0.9537467655      -37.5051469264        6.0698299014  OAC       52              0.0000000000
      3762       199  OAC       H2             -0.0499317707      -36.6241322222        4.8675349230  OAC       52              0.0000000000
      3763       199  OAC       H3              1.0264647025      -35.6993425111        5.9842619194  OAC       52              0.0000000000
      3764       199  OAC       O1              1.9361331287      -37.1961481986        3.2319410423  OAC       52              0.0000000000
      3765       199  OAC       DO1             1.9309699217      -37.1918918434        3.2330256986  OAC       52              0.0000000000
      3766       199  OAC       O2              3.2260114676      -36.3676602869        4.9184463696  OAC       52              0.0000000000
      3767       199  OAC       DO2             3.2520559570      -36.3855588426        4.9255774551  OAC       52              0.0000000000
      3768       199  OAC       H               4.0099338378      -36.7403645504        4.4877280748  OAC       52              0.0000000000
      3769       199  OAC       LPO11           1.5980544424      -37.2735676128        3.1849406577  OAC       52              0.0000000000
      3770       199  OAC       LPO12           2.2393306175      -37.2019719780        3.0571916035  OAC       52              0.0000000000
      3771       199  OAC       LPO21           3.1740055767      -36.2607982449        5.2476513077  OAC       52              0.0000000000
      3772       199  OAC       LPO22           3.4848861175      -36.4018628695        4.6853925154  OAC       52              0.0000000000
      3773       200  OAC       C1             31.9784445849       25.0801325754       30.5185681751  OAC       53              0.0000000000
      3774       200  OAC       DC1            31.9860801177       25.0627692787       30.4857445840  OAC       53              0.0000000000
      3775       200  OAC       C2             32.7143199540       24.9439225473       31.8673098551  OAC       53              0.0000000000
      3776       200  OAC       DC2            32.7178797624       24.9339092045       31.8298359589  OAC       53              0.0000000000
      3777       200  OAC       H1             33.1076211829       25.9337479431       32.1833491417  OAC       53              0.0000000000
      3778       200  OAC       H2             33.5644618732       24.2325583297       31.7928741942  OAC       53              0.0000000000
      3779       200  OAC       H3             32.0069960036       24.5664793526       32.6364330337  OAC       53              0.0000000000
      3780       200  OAC       O1             32.4371940790       24.3489189311       29.5816727818  OAC       53              0.0000000000
      3781       200  OAC       DO1            32.4473125647       24.3397995879       29.5564818206  OAC       53              0.0000000000
      3782       200  OAC       O2             31.0169234669       25.9185475104       30.4423919282  OAC       53              0.0000000000
      3783       200  OAC       DO2            31.0221442904       25.9110864988       30.4356546627  OAC       53              0.0000000000
      3784       200  OAC       H              30.5781065651       25.9759524637       29.5803563153  OAC       53              0.0000000000
      3785       200  OAC       LPO11          32.7081554197       24.1606814148       29.6984913988  OAC       53              0.0000000000
      3786       200  OAC       LPO12          32.2524471325       24.3997369139       29.2887801421  OAC       53              0.0000000000
      3787       200  OAC       LPO21          30.9731192107       26.0787711986       30.7504658752  OAC       53              0.0000000000
      3788       200  OAC       LPO22          30.8806001548       25.9153891644       30.1200474239  OAC       53              0.0000000000
      3789       201  OAC       C1            -17.4208132224      -21.6074184143       34.9038417136  OAC       54              0.0000000000
      3790       201  OAC       DC1           -17.4117219848      -21.6196881928       34.9083897588  OAC       54              0.0000000000
      3791       201  OAC       C2            -18.1854853088      -21.0036542906       33.7143018546  OAC       54              0.0000000000
      3792       201  OAC       DC2           -18.1772217630      -21.0166014997       33.7237848146  OAC       54              0.0000000000
      3793       201  OAC       H1            -19.2809643589      -21.0572821903       33.8914196159  OAC       54              0.0000000000
      3794       201  OAC       H2            -17.9526224846      -21.6014433730       32.8072494203  OAC       54              0.0000000000
      3795       201  OAC       H3            -17.8876244068      -19.9470666214       33.5433563062  OAC       54              0.0000000000
      3796       201  OAC       O1            -16.8065046155      -22.7120536056       34.7392971954  OAC       54              0.0000000000
      3797       201  OAC       DO1           -16.7955835660      -22.7209733492       34.7440839359  OAC       54              0.0000000000
      3798       201  OAC       O2            -17.4296940399      -20.8745945408       35.9481280763  OAC       54              0.0000000000
      3799       201  OAC       DO2           -17.4254830209      -20.8792075566       35.9508357567  OAC       54              0.0000000000
      3800       201  OAC       H             -17.0922050583      -21.3061848686       36.7473727048  OAC       54              0.0000000000
      3801       201  OAC       LPO11         -16.8485137088      -22.8245746578       34.4105507142  OAC       54              0.0000000000
      3802       201  OAC       LPO12         -16.6491093157      -22.8070172978       35.0371371134  OAC       54              0.0000000000
      3803       201  OAC       LPO21         -17.6103623872      -20.5811471421       35.8869106567  OAC       54              0.0000000000
      3804       201  OAC       LPO22         -17.2506922604      -21.0305207367       36.2053155262  OAC       54              0.0000000000
      3805       202  OAC       C1             18.1766193919       11.0567135557       23.2094383754  OAC       55              0.0000000000
      3806       202  OAC       DC1            18.1801176994       11.0855111528       23.1967368327  OAC       55              0.0000000000
      3807       202  OAC       C2             19.4147273064       10.3730906421       22.5795459475  OAC       55              0.0000000000
      3808       202  OAC       DC2            19.4063762498       10.3926396833       22.5658082880  OAC       55              0.0000000000
      3809       202  OAC       H1             19.4501609997       10.5582073178       21.4846499388  OAC       55              0.0000000000
      3810       202  OAC       H2             19.3883512344        9.2745039085       22.7430466896  OAC       55              0.0000000000
      3811       202  OAC       H3             20.3286987546       10.7990841121       23.0459221432  OAC       55              0.0000000000
      3812       202  OAC       O1             17.3750939950       10.3423409914       23.8754252468  OAC       55              0.0000000000
      3813       202  OAC       DO1            17.3846752022       10.3537828284       23.8636923985  OAC       55              0.0000000000
      3814       202  OAC       O2             18.0653151779       12.3062724071       22.9193060186  OAC       55              0.0000000000
      3815       202  OAC       DO2            18.0651924069       12.3288888421       22.9203943991  OAC       55              0.0000000000
      3816       202  OAC       H              17.2563458013       12.7122191189       23.2653360966  OAC       55              0.0000000000
      3817       202  OAC       LPO11          17.4857666424       10.0103254979       23.8795818266  OAC       55              0.0000000000
      3818       202  OAC       LPO12          17.1125386000       10.5389885125       23.9974679320  OAC       55              0.0000000000
      3819       202  OAC       LPO21          18.3301324644       12.4053119523       22.7129980612  OAC       55              0.0000000000
      3820       202  OAC       LPO22          17.7798024855       12.4395702256       23.0716680678  OAC       55              0.0000000000
      3821       203  OAC       C1             -8.6558703322        8.0451628647      -25.9809573413  OAC       56              0.0000000000
      3822       203  OAC       DC1            -8.6580635506        8.0587852328      -25.9761890444  OAC       56              0.0000000000
      3823       203  OAC       C2             -7.3776769567        7.3091542807      -25.5435385520  OAC       56              0.0000000000
      3824       203  OAC       DC2            -7.3699973072        7.3169147387      -25.5329789310  OAC       56              0.0000000000
      3825       203  OAC       H1             -7.3481527402        7.2238243281      -24.4362137939  OAC       56              0.0000000000
      3826       203  OAC       H2             -6.4628751841        7.8344084405      -25.8922028410  OAC       56              0.0000000000
      3827       203  OAC       H3             -7.3913968322        6.2860338647      -25.9763865395  OAC       56              0.0000000000
      3828       203  OAC       O1             -8.5358410186        9.1316151296      -26.6204451336  OAC       56              0.0000000000
      3829       203  OAC       DO1            -8.5292612367        9.1425581144      -26.6189063016  OAC       56              0.0000000000
      3830       203  OAC       O2             -9.7354380821        7.5212277574      -25.5497994360  OAC       56              0.0000000000
      3831       203  OAC       DO2            -9.7366919377        7.5233924172      -25.5483837023  OAC       56              0.0000000000
      3832       203  OAC       H             -10.5398830344        7.9744426910      -25.8437816517  OAC       56              0.0000000000
      3833       203  OAC       LPO11          -8.1970844372        9.2078957026      -26.6643228359  OAC       56              0.0000000000
      3834       203  OAC       LPO12          -8.8519056721        9.2607318522      -26.6974646555  OAC       56              0.0000000000
      3835       203  OAC       LPO21          -9.6625238510        7.2385928877      -25.3566646506  OAC       56              0.0000000000
      3836       203  OAC       LPO22         -10.0110535956        7.7054877747      -25.6619793573  OAC       56              0.0000000000
      3837       204  OAC       C1              2.4966919303      -26.2916984090       33.0049644761  OAC       57              0.0000000000
      3838       204  OAC       DC1             2.5093870444      -26.2942927514       33.0052103324  OAC       57              0.0000000000
      3839       204  OAC       C2              1.4135589655      -25.8950848755       34.0310283141  OAC       57              0.0000000000
      3840       204  OAC       DC2             1.4172399969      -25.9070616246       34.0154133251  OAC       57              0.0000000000
      3841       204  OAC       H1              1.2400049824      -26.7293960634       34.7438570867  OAC       57              0.0000000000
      3842       204  OAC       H2              0.4549317063      -25.6488336454       33.5263352290  OAC       57              0.0000000000
      3843       204  OAC       H3              1.7361781265      -25.0038737344       34.6106666314  OAC       57              0.0000000000
      3844       204  OAC       O1              2.1281202406      -26.4002496561       31.7983362254  OAC       57              0.0000000000
      3845       204  OAC       DO1             2.1298683997      -26.4045505645       31.8013512888  OAC       57              0.0000000000
      3846       204  OAC       O2              3.6678416190      -26.4855295628       33.4857125719  OAC       57              0.0000000000
      3847       204  OAC       DO2             3.6743032771      -26.4877814199       33.4898189607  OAC       57              0.0000000000
      3848       204  OAC       H               4.3301968630      -26.7647069242       32.8358614107  OAC       57              0.0000000000
      3849       204  OAC       LPO11           1.7863330453      -26.3300854096       31.7707954986  OAC       57              0.0000000000
      3850       204  OAC       LPO12           2.4002245136      -26.4909368248       31.5977493314  OAC       57              0.0000000000
      3851       204  OAC       LPO21           3.6652249214      -26.4337817744       33.8318560671  OAC       57              0.0000000000
      3852       204  OAC       LPO22           3.8893871817      -26.5735111776       33.2294377212  OAC       57              0.0000000000
      3853       205  OAC       C1              8.8303975648       10.6665605648       -7.1422142239  OAC       58              0.0000000000
      3854       205  OAC       DC1             8.8377414989       10.6629112007       -7.1293405957  OAC       58              0.0000000000
      3855       205  OAC       C2              8.1908555186       12.0025049886       -6.7385952973  OAC       58              0.0000000000
      3856       205  OAC       DC2             8.1901705978       12.0040949364       -6.7399288252  OAC       58              0.0000000000
      3857       205  OAC       H1              7.0953362214       11.9310688871       -6.9090516122  OAC       58              0.0000000000
      3858       205  OAC       H2              8.5924103331       12.8410132905       -7.3468539261  OAC       58              0.0000000000
      3859       205  OAC       H3              8.3891486782       12.2185704280       -5.6669999685  OAC       58              0.0000000000
      3860       205  OAC       O1              9.6064531141       10.7360984383       -8.1443033865  OAC       58              0.0000000000
      3861       205  OAC       DO1             9.6165839813       10.7433927052       -8.1349409122  OAC       58              0.0000000000
      3862       205  OAC       O2              8.5341818609        9.6623373349       -6.3989528088  OAC       58              0.0000000000
      3863       205  OAC       DO2             8.5376945233        9.6585176045       -6.3889580643  OAC       58              0.0000000000
      3864       205  OAC       H               8.8444923416        8.8028130384       -6.7212669246  OAC       58              0.0000000000
      3865       205  OAC       LPO11           9.6206798163       11.0653832893       -8.2620704782  OAC       58              0.0000000000
      3866       205  OAC       LPO12           9.7385980618       10.4199291089       -8.2155400901  OAC       58              0.0000000000
      3867       205  OAC       LPO21           8.3182383140        9.7627984899       -6.1424846023  OAC       58              0.0000000000
      3868       205  OAC       LPO22           8.6948929774        9.3746285463       -6.5168323657  OAC       58              0.0000000000
      3869       206  OAC       C1             -7.6290358981      -17.4237129696      -35.0602118979  OAC       59              0.0000000000
      3870       206  OAC       DC1            -7.6075915945      -17.4268667786      -35.0426544966  OAC       59              0.0000000000
      3871       206  OAC       C2             -8.2445199100      -17.8136009442      -36.3816056034  OAC       59              0.0000000000
      3872       206  OAC       DC2            -8.2204693181      -17.8099830395      -36.3552337052  OAC       59              0.0000000000
      3873       206  OAC       H1             -7.4149755946      -18.0289139464      -37.0885833545  OAC       59              0.0000000000
      3874       206  OAC       H2             -8.8429821241      -16.9647802375      -36.7761526680  OAC       59              0.0000000000
      3875       206  OAC       H3             -8.8969075314      -18.7092966700      -36.3013525010  OAC       59              0.0000000000
      3876       206  OAC       O1             -7.7683219091      -16.2202925659      -34.6884216757  OAC       59              0.0000000000
      3877       206  OAC       DO1            -7.7777998065      -16.2171771343      -34.6898814355  OAC       59              0.0000000000
      3878       206  OAC       O2             -6.9794757518      -18.3612227241      -34.4763970009  OAC       59              0.0000000000
      3879       206  OAC       DO2            -6.9809735528      -18.3823823687      -34.4631789236  OAC       59              0.0000000000
      3880       206  OAC       H              -6.5905910686      -18.0963776699      -33.6292920484  OAC       59              0.0000000000
      3881       206  OAC       LPO11          -7.9509406759      -16.0414979897      -34.9275511084  OAC       59              0.0000000000
      3882       206  OAC       LPO12          -7.6120182313      -16.1717268014      -34.3790504960  OAC       59              0.0000000000
      3883       206  OAC       LPO21          -6.9899277875      -18.6526216700      -34.6699878304  OAC       59              0.0000000000
      3884       206  OAC       LPO22          -6.8476504176      -18.2450017843      -34.1737176748  OAC       59              0.0000000000
      3885       207  OAC       C1              8.6075620755      -22.2196675820       27.5035992494  OAC       60              0.0000000000
      3886       207  OAC       DC1             8.6038125181      -22.2365358902       27.5003872585  OAC       60              0.0000000000
      3887       207  OAC       C2              9.8056320101      -22.4046118779       28.4741612675  OAC       60              0.0000000000
      3888       207  OAC       DC2             9.7987220264      -22.4038981140       28.4729572472  OAC       60              0.0000000000
      3889       207  OAC       H1              9.5058964320      -22.9793429802       29.3764714939  OAC       60              0.0000000000
      3890       207  OAC       H2             10.2175393706      -21.4290266272       28.8101474955  OAC       60              0.0000000000
      3891       207  OAC       H3             10.6138326426      -22.9998004659       27.9978386013  OAC       60              0.0000000000
      3892       207  OAC       O1              8.2526510552      -21.0324837407       27.2412824723  OAC       60              0.0000000000
      3893       207  OAC       DO1             8.2495904381      -21.0455528721       27.2378790895  OAC       60              0.0000000000
      3894       207  OAC       O2              8.0580809956      -23.2947089219       27.0726283750  OAC       60              0.0000000000
      3895       207  OAC       DO2             8.0439563525      -23.3016486967       27.0661388397  OAC       60              0.0000000000
      3896       207  OAC       H               7.4698874019      -23.1652242786       26.3135348211  OAC       60              0.0000000000
      3897       207  OAC       LPO11           8.4570348167      -20.8058179418       27.4126005789  OAC       60              0.0000000000
      3898       207  OAC       LPO12           7.9811795767      -21.0347399016       27.0203794482  OAC       60              0.0000000000
      3899       207  OAC       LPO21           8.2202196283      -23.5742303456       27.2070859426  OAC       60              0.0000000000
      3900       207  OAC       LPO22           7.7933219944      -23.2159608144       26.8576832499  OAC       60              0.0000000000
      3901       208  OAC       C1             -9.4964677181       10.3683455039      -17.8319892296  OAC       61              0.0000000000
      3902       208  OAC       DC1            -9.4883686045       10.3610793757      -17.8405791110  OAC       61              0.0000000000
      3903       208  OAC       C2            -10.4549773375       11.3238759436      -18.5706594027  OAC       61              0.0000000000
      3904       208  OAC       DC2           -10.4436004531       11.3293583194      -18.5690595790  OAC       61              0.0000000000
      3905       208  OAC       H1            -11.1698262969       11.7723108132      -17.8480127841  OAC       61              0.0000000000
      3906       208  OAC       H2            -11.0293206779       10.8001463070      -19.3644843178  OAC       61              0.0000000000
      3907       208  OAC       H3             -9.8573093792       12.1289383224      -19.0491869127  OAC       61              0.0000000000
      3908       208  OAC       O1             -9.4541161016        9.1887142838      -18.2752531493  OAC       61              0.0000000000
      3909       208  OAC       DO1            -9.4414529123        9.1864743049      -18.2784105883  OAC       61              0.0000000000
      3910       208  OAC       O2             -8.7684747558       10.8807013504      -16.9132189717  OAC       61              0.0000000000
      3911       208  OAC       DO2            -8.7716900457       10.8879573815      -16.9204770298  OAC       61              0.0000000000
      3912       208  OAC       H              -8.1914053820       10.2359190850      -16.4770908161  OAC       61              0.0000000000
      3913       208  OAC       LPO11          -9.6715300689        9.1552531112      -18.5474874541  OAC       61              0.0000000000
      3914       208  OAC       LPO12          -9.2286604391        8.9981879137      -18.0871854844  OAC       61              0.0000000000
      3915       208  OAC       LPO21          -8.8350430607       11.2231310981      -16.8847491872  OAC       61              0.0000000000
      3916       208  OAC       LPO22          -8.5656670143       10.6341558700      -16.7697465141  OAC       61              0.0000000000
      3917       209  OAC       C1             27.9882063006        6.6030907061       -3.6355754303  OAC       62              0.0000000000
      3918       209  OAC       DC1            27.9663327507        6.5968664744       -3.6445108180  OAC       62              0.0000000000
      3919       209  OAC       C2             27.9229743092        7.4725848153       -2.3515351325  OAC       62              0.0000000000
      3920       209  OAC       DC2            27.9167883819        7.4481575850       -2.3452988401  OAC       62              0.0000000000
      3921       209  OAC       H1             28.0096095831        6.8188193681       -1.4574400199  OAC       62              0.0000000000
      3922       209  OAC       H2             26.9657337160        8.0339685843       -2.2980588706  OAC       62              0.0000000000
      3923       209  OAC       H3             28.7616601481        8.2011964102       -2.3443095298  OAC       62              0.0000000000
      3924       209  OAC       O1             26.9152972940        6.4436121934       -4.3057216113  OAC       62              0.0000000000
      3925       209  OAC       DO1            26.8996835514        6.4281588151       -4.3113783284  OAC       62              0.0000000000
      3926       209  OAC       O2             29.1277583831        6.0629317831       -3.8440940891  OAC       62              0.0000000000
      3927       209  OAC       DO2            29.1167849073        6.0643307397       -3.8427767761  OAC       62              0.0000000000
      3928       209  OAC       H              29.1823360980        5.5238156061       -4.6474221794  OAC       62              0.0000000000
      3929       209  OAC       LPO11          26.6517325313        6.6154414410       -4.1523973617  OAC       62              0.0000000000
      3930       209  OAC       LPO12          26.9773981042        6.2418370963       -4.5848816005  OAC       62              0.0000000000
      3931       209  OAC       LPO21          29.3508124059        6.1519436182       -3.5894889121  OAC       62              0.0000000000
      3932       209  OAC       LPO22          29.1181466078        5.8727462182       -4.1377555688  OAC       62              0.0000000000
      3933       210  OAC       C1            -12.8336188176       -5.5946950736        9.5913443002  OAC       63              0.0000000000
      3934       210  OAC       DC1           -12.8225366643       -5.6339268924        9.5735366382  OAC       63              0.0000000000
      3935       210  OAC       C2            -13.5855592066       -4.2728199741        9.3353924479  OAC       63              0.0000000000
      3936       210  OAC       DC2           -13.5911340166       -4.3256767478        9.3112296666  OAC       63              0.0000000000
      3937       210  OAC       H1            -12.8544889542       -3.4425696096        9.2327200561  OAC       63              0.0000000000
      3938       210  OAC       H2            -14.2797453549       -4.0304490761       10.1682687528  OAC       63              0.0000000000
      3939       210  OAC       H3            -14.1737703089       -4.3459568337        8.3957224530  OAC       63              0.0000000000
      3940       210  OAC       O1            -13.0077642463       -6.1529764064       10.7160966429  OAC       63              0.0000000000
      3941       210  OAC       DO1           -13.0149294913       -6.1759397223       10.7095785312  OAC       63              0.0000000000
      3942       210  OAC       O2            -12.2582509646       -6.1416117685        8.5733833414  OAC       63              0.0000000000
      3943       210  OAC       DO2           -12.2524562190       -6.1637297615        8.5483443941  OAC       63              0.0000000000
      3944       210  OAC       H             -11.7171309164       -6.9129375046        8.7996723207  OAC       63              0.0000000000
      3945       210  OAC       LPO11         -13.2278405957       -5.9631841519       10.9111486886  OAC       63              0.0000000000
      3946       210  OAC       LPO12         -12.8205763968       -6.4482037320       10.7334614133  OAC       63              0.0000000000
      3947       210  OAC       LPO21         -12.3106429783       -5.9468561683        8.2873320644  OAC       63              0.0000000000
      3948       210  OAC       LPO22         -12.0991491488       -6.4378005162        8.6706398989  OAC       63              0.0000000000
      3949       211  OAC       C1             16.2559971602      -35.8112038257       28.2563393807  OAC       64              0.0000000000
      3950       211  OAC       DC1            16.2436690781      -35.7926387772       28.2623081186  OAC       64              0.0000000000
      3951       211  OAC       C2             15.2018127105      -36.2504266989       29.3110641864  OAC       64              0.0000000000
      3952       211  OAC       DC2            15.1963259388      -36.2476735972       29.3162442150  OAC       64              0.0000000000
      3953       211  OAC       H1             15.2091085425      -35.5451730369       30.1694842718  OAC       64              0.0000000000
      3954       211  OAC       H2             15.4065592632      -37.2563242841       29.7359993564  OAC       64              0.0000000000
      3955       211  OAC       H3             14.1913466738      -36.2376833229       28.8494182232  OAC       64              0.0000000000
      3956       211  OAC       O1             17.1827731647      -36.6019450655       27.9291448590  OAC       64              0.0000000000
      3957       211  OAC       DO1            17.1692312383      -36.5943491331       27.9413786333  OAC       64              0.0000000000
      3958       211  OAC       O2             16.1013581004      -34.5849376541       27.9158662379  OAC       64              0.0000000000
      3959       211  OAC       DO2            16.1038709383      -34.5732001613       27.9270467957  OAC       64              0.0000000000
      3960       211  OAC       H              16.7058583817      -34.3011780011       27.2137117897  OAC       64              0.0000000000
      3961       211  OAC       LPO11          17.1521136414      -36.9021849649       28.1063904412  OAC       64              0.0000000000
      3962       211  OAC       LPO12          17.3893288755      -36.4517828209       27.6897998388  OAC       64              0.0000000000
      3963       211  OAC       LPO21          15.8312592116      -34.4456438135       28.0894859842  OAC       64              0.0000000000
      3964       211  OAC       LPO22          16.3425784230      -34.4952284943       27.6786637451  OAC       64              0.0000000000
      3965       212  OAC       C1             32.7994357588       -3.3929587617       21.3178932437  OAC       65              0.0000000000
      3966       212  OAC       DC1            32.8093634859       -3.4029533244       21.3119382308  OAC       65              0.0000000000
      3967       212  OAC       C2             32.2764286319       -2.2572217944       20.4116814321  OAC       65              0.0000000000
      3968       212  OAC       DC2            32.2838912635       -2.2723306071       20.4066670744  OAC       65              0.0000000000
      3969       212  OAC       H1             32.7284374213       -1.2929839042       20.7283111019  OAC       65              0.0000000000
      3970       212  OAC       H2             31.1706509901       -2.1807010309       20.4873212373  OAC       65              0.0000000000
      3971       212  OAC       H3             32.5418318374       -2.4619167752       19.3524448658  OAC       65              0.0000000000
      3972       212  OAC       O1             31.9555841874       -3.9745218652       22.0614765113  OAC       65              0.0000000000
      3973       212  OAC       DO1            31.9608771356       -3.9786914634       22.0595916201  OAC       65              0.0000000000
      3974       212  OAC       O2             34.0292862762       -3.7106954463       21.1515428922  OAC       65              0.0000000000
      3975       212  OAC       DO2            34.0350368126       -3.7233965258       21.1485240010  OAC       65              0.0000000000
      3976       212  OAC       H              34.3693741889       -4.3414470370       21.8038109678  OAC       65              0.0000000000
      3977       212  OAC       LPO11          31.6380625350       -3.8351515484       22.0139800374  OAC       65              0.0000000000
      3978       212  OAC       LPO12          32.1135474639       -4.2238561466       22.2495722832  OAC       65              0.0000000000
      3979       212  OAC       LPO21          34.1717007686       -3.5112704050       20.9016473836  OAC       65              0.0000000000
      3980       212  OAC       LPO22          34.1167122079       -3.9695006588       21.3703500411  OAC       65              0.0000000000
      3981       213  OAC       C1            -16.2663816233       15.6961851051       18.9527151421  OAC       66              0.0000000000
      3982       213  OAC       DC1           -16.2648873286       15.7298232393       18.9407261593  OAC       66              0.0000000000
      3983       213  OAC       C2            -16.7669639065       15.3788033021       20.3783681102  OAC       66              0.0000000000
      3984       213  OAC       DC2           -16.7576640682       15.4128359018       20.3633415124  OAC       66              0.0000000000
      3985       213  OAC       H1            -16.2555086092       16.0427924392       21.1076505693  OAC       66              0.0000000000
      3986       213  OAC       H2            -16.5472085118       14.3224489589       20.6432153641  OAC       66              0.0000000000
      3987       213  OAC       H3            -17.8655959846       15.5290512607       20.4473181609  OAC       66              0.0000000000
      3988       213  OAC       O1            -15.5806137754       14.8143028341       18.3749657920  OAC       66              0.0000000000
      3989       213  OAC       DO1           -15.5825215821       14.8286781317       18.3838970244  OAC       66              0.0000000000
      3990       213  OAC       O2            -16.5144656677       16.8801136002       18.5341689235  OAC       66              0.0000000000
      3991       213  OAC       DO2           -16.5193241437       16.9113009139       18.5431273377  OAC       66              0.0000000000
      3992       213  OAC       H             -16.1569381420       17.0822549998       17.6565164166  OAC       66              0.0000000000
      3993       213  OAC       LPO11         -15.5431220580       14.5359339104       18.5837841663  OAC       66              0.0000000000
      3994       213  OAC       LPO12         -15.4875627662       14.9247967014       18.0561670860  OAC       66              0.0000000000
      3995       213  OAC       LPO21         -16.6860226946       17.0605495404       18.7801588787  OAC       66              0.0000000000
      3996       213  OAC       LPO22         -16.3893106542       16.9211214288       18.2098934533  OAC       66              0.0000000000
      3997       214  OAC       C1             14.3862721390        3.3469496635      -22.3566701637  OAC       67              0.0000000000
      3998       214  OAC       DC1            14.3882220636        3.3582856408      -22.3675837655  OAC       67              0.0000000000
      3999       214  OAC       C2             13.0298301158        2.6006901072      -22.1591467021  OAC       67              0.0000000000
      4000       214  OAC       DC2            13.0394788565        2.6049660129      -22.1692355487  OAC       67              0.0000000000
      4001       214  OAC       H1             13.1016440748        1.6019138066      -22.6404051116  OAC       67              0.0000000000
      4002       214  OAC       H2             12.1658264184        3.1161629476      -22.6304283199  OAC       67              0.0000000000
      4003       214  OAC       H3             12.7859239197        2.4989726298      -21.0800339541  OAC       67              0.0000000000
      4004       214  OAC       O1             14.3283073082        4.2273154325      -23.2524792535  OAC       67              0.0000000000
      4005       214  OAC       DO1            14.3374360457        4.2391670801      -23.2675165498  OAC       67              0.0000000000
      4006       214  OAC       O2             15.4384218685        3.0587181186      -21.6850180999  OAC       67              0.0000000000
      4007       214  OAC       DO2            15.4412052840        3.0596169834      -21.6918045923  OAC       67              0.0000000000
      4008       214  OAC       H              16.2100127805        3.5941396993      -21.9236227842  OAC       67              0.0000000000
      4009       214  OAC       LPO11          14.0067615760        4.2367810668      -23.3903877154  OAC       67              0.0000000000
      4010       214  OAC       LPO12          14.6388156818        4.3854844247      -23.2851460542  OAC       67              0.0000000000
      4011       214  OAC       LPO21          15.3703929383        2.7975035725      -21.4622199276  OAC       67              0.0000000000
      4012       214  OAC       LPO22          15.7030785452        3.2660674042      -21.7822966546  OAC       67              0.0000000000
      4013       215  OAC       C1             15.1329280163       25.1298893312      -14.8825076601  OAC       68              0.0000000000
      4014       215  OAC       DC1            15.1393894821       25.1352415754      -14.8849183010  OAC       68              0.0000000000
      4015       215  OAC       C2             15.3262971482       23.8011097451      -14.0934306071  OAC       68              0.0000000000
      4016       215  OAC       DC2            15.3290135985       23.8050390006      -14.1039408708  OAC       68              0.0000000000
      4017       215  OAC       H1             16.2984135100       23.3334434598      -14.3591353786  OAC       68              0.0000000000
      4018       215  OAC       H2             14.5160839199       23.0714273154      -14.3065950424  OAC       68              0.0000000000
      4019       215  OAC       H3             15.3168812320       24.0232503982      -13.0049059760  OAC       68              0.0000000000
      4020       215  OAC       O1             14.0651658564       25.2848441804      -15.5451788318  OAC       68              0.0000000000
      4021       215  OAC       DO1            14.0721673498       25.2901143755      -15.5502004261  OAC       68              0.0000000000
      4022       215  OAC       O2             16.1124976921       25.9538737957      -14.8401013845  OAC       68              0.0000000000
      4023       215  OAC       DO2            16.1179706081       25.9587137806      -14.8511065805  OAC       68              0.0000000000
      4024       215  OAC       H              15.9569624400       26.7787554855      -15.3241881362  OAC       68              0.0000000000
      4025       215  OAC       LPO11          13.8611937788       25.0024501228      -15.5112821099  OAC       68              0.0000000000
      4026       215  OAC       LPO12          14.0672444717       25.5965372451      -15.7043740353  OAC       68              0.0000000000
      4027       215  OAC       LPO21          16.3717289684       25.8217471919      -14.6455719369  OAC       68              0.0000000000
      4028       215  OAC       LPO22          16.0363808985       26.2400307791      -15.0267036744  OAC       68              0.0000000000
      4029       216  OAC       C1             33.3658962062      -25.0485808985       26.1722643098  OAC       69              0.0000000000
      4030       216  OAC       DC1            33.3554767138      -25.0474838944       26.1639278816  OAC       69              0.0000000000
      4031       216  OAC       C2             33.5337887784      -24.7851588322       27.6891746806  OAC       69              0.0000000000
      4032       216  OAC       DC2            33.5248975729      -24.7869459241       27.6767721056  OAC       69              0.0000000000
      4033       216  OAC       H1             32.9989098611      -23.8498644135       27.9601910908  OAC       69              0.0000000000
      4034       216  OAC       H2             34.6035012792      -24.6705935005       27.9665029165  OAC       69              0.0000000000
      4035       216  OAC       H3             33.1014239042      -25.6323818078       28.2632781960  OAC       69              0.0000000000
      4036       216  OAC       O1             34.4199256774      -25.0561300269       25.4666474876  OAC       69              0.0000000000
      4037       216  OAC       DO1            34.4177277755      -25.0523724551       25.4679859759  OAC       69              0.0000000000
      4038       216  OAC       O2             32.1465914720      -25.1756674964       25.7842187306  OAC       69              0.0000000000
      4039       216  OAC       DO2            32.1353170472      -25.1681164883       25.7843774740  OAC       69              0.0000000000
      4040       216  OAC       H              32.0504854133      -25.3303153620       24.8324789220  OAC       69              0.0000000000
      4041       216  OAC       LPO11          34.6994026219      -24.9949964386       25.6682791366  OAC       69              0.0000000000
      4042       216  OAC       LPO12          34.3393941205      -25.1186884940       25.1318324543  OAC       69              0.0000000000
      4043       216  OAC       LPO21          31.9299421253      -25.1408425283       26.0568912121  OAC       69              0.0000000000
      4044       216  OAC       LPO22          32.1362185293      -25.2341547121       25.4392960615  OAC       69              0.0000000000
      4045       217  OAC       C1             -0.3316449846       -2.1937275055       -4.3564694133  OAC       70              0.0000000000
      4046       217  OAC       DC1            -0.3226674670       -2.2006363805       -4.3449544610  OAC       70              0.0000000000
      4047       217  OAC       C2             -1.6811536653       -1.5375699498       -4.7215688433  OAC       70              0.0000000000
      4048       217  OAC       DC2            -1.6704970689       -1.5601231775       -4.7038853797  OAC       70              0.0000000000
      4049       217  OAC       H1             -2.4153943487       -1.7903145508       -3.9270049468  OAC       70              0.0000000000
      4050       217  OAC       H2             -2.0586014542       -1.9099546468       -5.6978801696  OAC       70              0.0000000000
      4051       217  OAC       H3             -1.5738470873       -0.4332871824       -4.7795849504  OAC       70              0.0000000000
      4052       217  OAC       O1              0.0150010616       -3.2332562893       -5.0000500633  OAC       70              0.0000000000
      4053       217  OAC       DO1             0.0100930279       -3.2437699506       -4.9940867044  OAC       70              0.0000000000
      4054       217  OAC       O2              0.2607400342       -1.6489803319       -3.3595807911  OAC       70              0.0000000000
      4055       217  OAC       DO2             0.2658873039       -1.6493719401       -3.3535334887  OAC       70              0.0000000000
      4056       217  OAC       H               1.1285285399       -2.0253102477       -3.1491528847  OAC       70              0.0000000000
      4057       217  OAC       LPO11          -0.2299301330       -3.3149905920       -5.2363300111  OAC       70              0.0000000000
      4058       217  OAC       LPO12           0.3252381611       -3.3473625816       -4.8850166067  OAC       70              0.0000000000
      4059       217  OAC       LPO21           0.0692257495       -1.3827044151       -3.2374357341  OAC       70              0.0000000000
      4060       217  OAC       LPO22           0.5629521503       -1.8134604082       -3.2954392183  OAC       70              0.0000000000
      4061       218  OAC       C1             24.3922446426       -0.5191066542       22.3590795997  OAC       71              0.0000000000
      4062       218  OAC       DC1            24.3910338972       -0.5122767877       22.3588022915  OAC       71              0.0000000000
      4063       218  OAC       C2             23.2312010613       -1.1930287014       21.5912230741  OAC       71              0.0000000000
      4064       218  OAC       DC2            23.2284645217       -1.1850044560       21.5856812906  OAC       71              0.0000000000
      4065       218  OAC       H1             23.6319350296       -1.6172439580       20.6458264892  OAC       71              0.0000000000
      4066       218  OAC       H2             22.4263464768       -0.4674531284       21.3461308734  OAC       71              0.0000000000
      4067       218  OAC       H3             22.8028367399       -2.0107954375       22.2093513568  OAC       71              0.0000000000
      4068       218  OAC       O1             24.2960552551        0.7327734271       22.5566534066  OAC       71              0.0000000000
      4069       218  OAC       DO1            24.2996368191        0.7378121153       22.5549851878  OAC       71              0.0000000000
      4070       218  OAC       O2             25.3492119441       -1.3054926508       22.6850873273  OAC       71              0.0000000000
      4071       218  OAC       DO2            25.3460387260       -1.3039519186       22.6818612581  OAC       71              0.0000000000
      4072       218  OAC       H              26.0719720112       -0.8785498407       23.1691314599  OAC       71              0.0000000000
      4073       218  OAC       LPO11          23.9980502102        0.8532669368       22.4181820834  OAC       71              0.0000000000
      4074       218  OAC       LPO12          24.5759417040        0.8480887722       22.7323404774  OAC       71              0.0000000000
      4075       218  OAC       LPO21          25.2802585859       -1.6302770258       22.5743599859  OAC       71              0.0000000000
      4076       218  OAC       LPO22          25.5970456480       -1.1277028477       22.8567534018  OAC       71              0.0000000000
      4077       219  OAC       C1             30.7814564460       27.1211809022      -23.7353484597  OAC       72              0.0000000000
      4078       219  OAC       DC1            30.7757692303       27.1242779291      -23.7334182545  OAC       72              0.0000000000
      4079       219  OAC       C2             30.9758749631       27.6747172260      -22.3044803846  OAC       72              0.0000000000
      4080       219  OAC       DC2            30.9644218816       27.6736525599      -22.2944564607  OAC       72              0.0000000000
      4081       219  OAC       H1             31.3755508655       28.7102505899      -22.3519232588  OAC       72              0.0000000000
      4082       219  OAC       H2             31.7008843241       27.0525445742      -21.7373969536  OAC       72              0.0000000000
      4083       219  OAC       H3             29.9994167027       27.6721312295      -21.7745336133  OAC       72              0.0000000000
      4084       219  OAC       O1             31.3756356940       26.0378552239      -24.0222377431  OAC       72              0.0000000000
      4085       219  OAC       DO1            31.3690740496       26.0381870662      -24.0187218483  OAC       72              0.0000000000
      4086       219  OAC       O2             29.9680812933       27.8053199620      -24.4534745972  OAC       72              0.0000000000
      4087       219  OAC       DO2            29.9633513304       27.8063901070      -24.4515131757  OAC       72              0.0000000000
      4088       219  OAC       H              29.8616716386       27.4734193518      -25.3576205867  OAC       72              0.0000000000
      4089       219  OAC       LPO11          31.5571249828       25.9239475903      -23.7454947413  OAC       72              0.0000000000
      4090       219  OAC       LPO12          31.3062955768       25.9472890766      -24.3531300536  OAC       72              0.0000000000
      4091       219  OAC       LPO21          29.8445609130       28.0761522448      -24.2693751941  OAC       72              0.0000000000
      4092       219  OAC       LPO22          29.9397868965       27.6621808088      -24.7716107472  OAC       72              0.0000000000
      4093       220  OAC       C1             18.2271335474       12.0179449929      -34.5535963207  OAC       73              0.0000000000
      4094       220  OAC       DC1            18.2315101165       12.0208766546      -34.5519286494  OAC       73              0.0000000000
      4095       220  OAC       C2             18.6331532778       12.7371808503      -35.8515763183  OAC       73              0.0000000000
      4096       220  OAC       DC2            18.6267360862       12.7389254830      -35.8551996401  OAC       73              0.0000000000
      4097       220  OAC       H1             18.6344838646       13.8376230205      -35.6987814877  OAC       73              0.0000000000
      4098       220  OAC       H2             17.9234839490       12.4912014737      -36.6702243453  OAC       73              0.0000000000
      4099       220  OAC       H3             19.6543699458       12.4086216148      -36.1405163541  OAC       73              0.0000000000
      4100       220  OAC       O1             17.2383370338       11.2267132073      -34.5660686524  OAC       73              0.0000000000
      4101       220  OAC       DO1            17.2403776197       11.2309756535      -34.5650695349  OAC       73              0.0000000000
      4102       220  OAC       O2             18.9553880658       12.3572080220      -33.5641643281  OAC       73              0.0000000000
      4103       220  OAC       DO2            18.9543827767       12.3637481321      -33.5633653345  OAC       73              0.0000000000
      4104       220  OAC       H              18.7534458413       11.8886954854      -32.7403461800  OAC       73              0.0000000000
      4105       220  OAC       LPO11          17.1001655891       11.2128439864      -34.8873415840  OAC       73              0.0000000000
      4106       220  OAC       LPO12          17.1895844853       11.0910064509      -34.2471535144  OAC       73              0.0000000000
      4107       220  OAC       LPO21          19.1947496025       12.5912125865      -33.6663793884  OAC       73              0.0000000000
      4108       220  OAC       LPO22          18.8528253802       12.1869322658      -33.2760895767  OAC       73              0.0000000000
      4109       221  OAC       C1              3.2434908323       10.4103407035      -30.6745370161  OAC       74              0.0000000000
      4110       221  OAC       DC1             3.2587810220       10.4437542843      -30.6634383256  OAC       74              0.0000000000
      4111       221  OAC       C2              4.3137320939        9.4064747132      -30.2069136300  OAC       74              0.0000000000
      4112       221  OAC       DC2             4.3174302190        9.4196072298      -30.2018904806  OAC       74              0.0000000000
      4113       221  OAC       H1              3.8852373212        8.7723648409      -29.4015454535  OAC       74              0.0000000000
      4114       221  OAC       H2              5.2160390886        9.9240584251      -29.8166954992  OAC       74              0.0000000000
      4115       221  OAC       H3              4.6052273551        8.7579691760      -31.0606068309  OAC       74              0.0000000000
      4116       221  OAC       O1              3.5388579707       11.6292271297      -30.4756848158  OAC       74              0.0000000000
      4117       221  OAC       DO1             3.5359053279       11.6565053552      -30.4702780024  OAC       74              0.0000000000
      4118       221  OAC       O2              2.1705878028        9.9289239031      -31.1674422384  OAC       74              0.0000000000
      4119       221  OAC       DO2             2.1873162220        9.9373725117      -31.1556838141  OAC       74              0.0000000000
      4120       221  OAC       H               1.5555951131       10.5869188154      -31.5249162754  OAC       74              0.0000000000
      4121       221  OAC       LPO11           3.8531463986       11.6529495693      -30.3235006183  OAC       74              0.0000000000
      4122       221  OAC       LPO12           3.2802581478       11.8353138866      -30.5903773623  OAC       74              0.0000000000
      4123       221  OAC       LPO21           2.1848750232        9.5792165250      -31.1666516424  OAC       74              0.0000000000
      4124       221  OAC       LPO22           1.9548486301       10.1882388118      -31.2607824094  OAC       74              0.0000000000
      4125       222  OAC       C1             14.5386383248       27.4172414556       -3.3633057365  OAC       75              0.0000000000
      4126       222  OAC       DC1            14.5443226419       27.3865393355       -3.3865488586  OAC       75              0.0000000000
      4127       222  OAC       C2             16.0617655943       27.2783835156       -3.1780169742  OAC       75              0.0000000000
      4128       222  OAC       DC2            16.0797088609       27.2735149257       -3.2008198198  OAC       75              0.0000000000
      4129       222  OAC       H1             16.2861388368       26.4436878832       -2.4799762520  OAC       75              0.0000000000
      4130       222  OAC       H2             16.4864608152       28.2176400779       -2.7635871496  OAC       75              0.0000000000
      4131       222  OAC       H3             16.5227389207       27.0842232505       -4.1700484181  OAC       75              0.0000000000
      4132       222  OAC       O1             14.0659177019       28.5394164345       -3.0478023907  OAC       75              0.0000000000
      4133       222  OAC       DO1            14.0872494089       28.5257265057       -3.0657595933  OAC       75              0.0000000000
      4134       222  OAC       O2             14.0168232633       26.4510711134       -4.0352005072  OAC       75              0.0000000000
      4135       222  OAC       DO2            14.0262052015       26.4348819822       -4.0659975340  OAC       75              0.0000000000
      4136       222  OAC       H              13.0479083222       26.4502008671       -4.0223911491  OAC       75              0.0000000000
      4137       222  OAC       LPO11          14.3220511396       28.7500017926       -2.9357779780  OAC       75              0.0000000000
      4138       222  OAC       LPO12          13.7198112896       28.5424147787       -3.0997770126  OAC       75              0.0000000000
      4139       222  OAC       LPO21          14.2649127713       26.2225381357       -4.1286043300  OAC       75              0.0000000000
      4140       222  OAC       LPO22          13.6716880265       26.4999183903       -4.0667538244  OAC       75              0.0000000000
      4141       223  OAC       C1            -32.0085806943        7.7256333729       12.6293165039  OAC       76              0.0000000000
      4142       223  OAC       DC1           -32.0132393864        7.7086512652       12.6335963751  OAC       76              0.0000000000
      4143       223  OAC       C2            -30.5302570798        8.0632133944       12.3216264329  OAC       76              0.0000000000
      4144       223  OAC       DC2           -30.5392364293        8.0568827820       12.3292562879  OAC       76              0.0000000000
      4145       223  OAC       H1            -30.4833151937        8.8111729069       11.5014593597  OAC       76              0.0000000000
      4146       223  OAC       H2            -29.9618648810        7.1563069430       12.0236801348  OAC       76              0.0000000000
      4147       223  OAC       H3            -30.0495621032        8.4926180945       13.2265380004  OAC       76              0.0000000000
      4148       223  OAC       O1            -32.3721311889        6.5114017806       12.5249060791  OAC       76              0.0000000000
      4149       223  OAC       DO1           -32.3795825548        6.5007940177       12.5299979883  OAC       76              0.0000000000
      4150       223  OAC       O2            -32.6807153527        8.7019043756       13.1138380814  OAC       76              0.0000000000
      4151       223  OAC       DO2           -32.6759436846        8.6930126286       13.1225475927  OAC       76              0.0000000000
      4152       223  OAC       H             -33.6024689297        8.4873212697       13.3218896007  OAC       76              0.0000000000
      4153       223  OAC       LPO11         -32.1007814072        6.3131945701       12.4270122709  OAC       76              0.0000000000
      4154       223  OAC       LPO12         -32.7119196894        6.4810287643       12.6031445278  OAC       76              0.0000000000
      4155       223  OAC       LPO21         -32.4766552341        8.9847191397       13.1434231646  OAC       76              0.0000000000
      4156       223  OAC       LPO22         -33.0104458503        8.6016249787       13.1748449791  OAC       76              0.0000000000
      4157       224  OAC       C1             -9.7418189190      -13.9102899896       -9.5737368759  OAC       77              0.0000000000
      4158       224  OAC       DC1            -9.7225372928      -13.9341620932       -9.5625051483  OAC       77              0.0000000000
      4159       224  OAC       C2            -10.4502623356      -12.6071688720      -10.0063366155  OAC       77              0.0000000000
      4160       224  OAC       DC2           -10.4226722799      -12.6386877800       -9.9857612767  OAC       77              0.0000000000
      4161       224  OAC       H1            -10.1221729267      -12.3220685582      -11.0287827766  OAC       77              0.0000000000
      4162       224  OAC       H2            -10.2239677123      -11.7623147881       -9.3212575541  OAC       77              0.0000000000
      4163       224  OAC       H3            -11.5513568507      -12.7550485892      -10.0129289119  OAC       77              0.0000000000
      4164       224  OAC       O1             -9.0674940239      -13.8858743249       -8.4927708530  OAC       77              0.0000000000
      4165       224  OAC       DO1            -9.0555495280      -13.8821442920       -8.4765425622  OAC       77              0.0000000000
      4166       224  OAC       O2             -9.8432869772      -14.9123278986      -10.3718157379  OAC       77              0.0000000000
      4167       224  OAC       DO2            -9.8267002066      -14.9264361374      -10.3703771329  OAC       77              0.0000000000
      4168       224  OAC       H              -9.4376571423      -15.7288980793      -10.0437325517  OAC       77              0.0000000000
      4169       224  OAC       LPO11          -9.0832255061      -13.5671355917       -8.3490414531  OAC       77              0.0000000000
      4170       224  OAC       LPO12          -8.9250694445      -14.2000258092       -8.4334068563  OAC       77              0.0000000000
      4171       224  OAC       LPO21         -10.0343784852      -14.8238358084      -10.6513746504  OAC       77              0.0000000000
      4172       224  OAC       LPO22          -9.6710999757      -15.1875095989      -10.2409468404  OAC       77              0.0000000000
      4173       225  OAC       C1             10.7109604157        4.2500294322      -12.2893151710  OAC       78              0.0000000000
      4174       225  OAC       DC1            10.7115950803        4.2378750424      -12.2988657338  OAC       78              0.0000000000
      4175       225  OAC       C2             10.2708139134        5.6923492961      -11.9700618534  OAC       78              0.0000000000
      4176       225  OAC       DC2            10.2828638436        5.6747367266      -11.9752285664  OAC       78              0.0000000000
      4177       225  OAC       H1              9.4647121810        5.9999835736      -12.6699776693  OAC       78              0.0000000000
      4178       225  OAC       H2             11.1153520847        6.4057169570      -12.0804378360  OAC       78              0.0000000000
      4179       225  OAC       H3              9.8899540418        5.7445569119      -10.9276890193  OAC       78              0.0000000000
      4180       225  OAC       O1             11.8930174687        4.0863863109      -12.7209543012  OAC       78              0.0000000000
      4181       225  OAC       DO1            11.8931758066        4.0843351368      -12.7259863418  OAC       78              0.0000000000
      4182       225  OAC       O2              9.8145603007        3.3533530145      -12.1051427404  OAC       78              0.0000000000
      4183       225  OAC       DO2             9.8132858896        3.3517563366      -12.1050918020  OAC       78              0.0000000000
      4184       225  OAC       H              10.0801291146        2.4599482745      -12.3702128739  OAC       78              0.0000000000
      4185       225  OAC       LPO11          12.0563805460        4.3951661487      -12.7425764374  OAC       78              0.0000000000
      4186       225  OAC       LPO12          11.9526662648        3.7467328712      -12.7807670253  OAC       78              0.0000000000
      4187       225  OAC       LPO21           9.5188983581        3.5014394386      -11.9904499914  OAC       78              0.0000000000
      4188       225  OAC       LPO22           9.9427149716        3.0377076868      -12.1854198074  OAC       78              0.0000000000
      4189       226  OAC       C1             14.7049833611       32.5674552188       18.3608056895  OAC       79              0.0000000000
      4190       226  OAC       DC1            14.7022135699       32.5635842591       18.3531999119  OAC       79              0.0000000000
      4191       226  OAC       C2             15.8719514513       32.5116657061       17.3417786220  OAC       79              0.0000000000
      4192       226  OAC       DC2            15.8678058226       32.5090886308       17.3256247207  OAC       79              0.0000000000
      4193       226  OAC       H1             16.6243972990       31.7440668685       17.6227381784  OAC       79              0.0000000000
      4194       226  OAC       H2             16.3863668060       33.4931783331       17.2622122573  OAC       79              0.0000000000
      4195       226  OAC       H3             15.4542587484       32.2424746558       16.3481036327  OAC       79              0.0000000000
      4196       226  OAC       O1             14.5762410475       33.6374037926       19.0274298867  OAC       79              0.0000000000
      4197       226  OAC       DO1            14.5729716647       33.6309872611       19.0237331051  OAC       79              0.0000000000
      4198       226  OAC       O2             13.9138261707       31.5568656124       18.3278436506  OAC       79              0.0000000000
      4199       226  OAC       DO2            13.9115306053       31.5548063294       18.3268551433  OAC       79              0.0000000000
      4200       226  OAC       H              13.1980194873       31.5907928993       18.9800941631  OAC       79              0.0000000000
      4201       226  OAC       LPO11          14.8247640877       33.8661786436       18.9357872871  OAC       79              0.0000000000
      4202       226  OAC       LPO12          14.3033941890       33.6107787553       19.2450205556  OAC       79              0.0000000000
      4203       226  OAC       LPO21          14.0192398984       31.3302553096       18.0828217808  OAC       79              0.0000000000
      4204       226  OAC       LPO22          13.6608780139       31.5950218856       18.5667187828  OAC       79              0.0000000000
      4205       227  OAC       C1            -11.8551155771       -5.9153942899      -18.0042967424  OAC       80              0.0000000000
      4206       227  OAC       DC1           -11.8507487702       -5.9092667583      -18.0137211409  OAC       80              0.0000000000
      4207       227  OAC       C2            -12.3146965173       -7.2684397505      -18.5937173490  OAC       80              0.0000000000
      4208       227  OAC       DC2           -12.3016212266       -7.2706738847      -18.6041874398  OAC       80              0.0000000000
      4209       227  OAC       H1            -13.2145068809       -7.0899296210      -19.2204520967  OAC       80              0.0000000000
      4210       227  OAC       H2            -12.5707450458       -7.9944691731      -17.7926921131  OAC       80              0.0000000000
      4211       227  OAC       H3            -11.5038155976       -7.6922166785      -19.2239603584  OAC       80              0.0000000000
      4212       227  OAC       O1            -11.8246900968       -5.7723220193      -16.7456885915  OAC       80              0.0000000000
      4213       227  OAC       DO1           -11.8210601773       -5.7755051817      -16.7509233755  OAC       80              0.0000000000
      4214       227  OAC       O2            -11.4908044084       -5.0839444512      -18.9087438326  OAC       80              0.0000000000
      4215       227  OAC       DO2           -11.4857474399       -5.0824637793      -18.9174519181  OAC       80              0.0000000000
      4216       227  OAC       H             -11.2365350936       -4.2148518131      -18.5638002112  OAC       80              0.0000000000
      4217       227  OAC       LPO11         -11.9292376210       -6.0673689130      -16.5891090727  OAC       80              0.0000000000
      4218       227  OAC       LPO12         -11.7143936908       -5.4502416796      -16.6644546234  OAC       80              0.0000000000
      4219       227  OAC       LPO21         -11.5238360385       -5.2294017495      -19.2253683512  OAC       80              0.0000000000
      4220       227  OAC       LPO22         -11.3897070919       -4.7831441144      -18.7611007157  OAC       80              0.0000000000
      4221       228  OAC       C1             21.8040160519        1.1618831883       13.8126671341  OAC       81              0.0000000000
      4222       228  OAC       DC1            21.8118866105        1.1711702848       13.7823907474  OAC       81              0.0000000000
      4223       228  OAC       C2             21.2170555578       -0.0766291965       14.5227067699  OAC       81              0.0000000000
      4224       228  OAC       DC2            21.2292306177       -0.0533372745       14.4990174479  OAC       81              0.0000000000
      4225       228  OAC       H1             21.9578411595       -0.4709185379       15.2507820458  OAC       81              0.0000000000
      4226       228  OAC       H2             20.9633115420       -0.8757698044       13.7937971288  OAC       81              0.0000000000
      4227       228  OAC       H3             20.2871297219        0.1936285121       15.0672430050  OAC       81              0.0000000000
      4228       228  OAC       O1             22.0125419672        1.1059453776       12.5581995523  OAC       81              0.0000000000
      4229       228  OAC       DO1            22.0120467097        1.1266027892       12.5348926621  OAC       81              0.0000000000
      4230       228  OAC       O2             21.9911508757        2.1938521262       14.5413934995  OAC       81              0.0000000000
      4231       228  OAC       DO2            21.9919735403        2.1979368457       14.5234485034  OAC       81              0.0000000000
      4232       228  OAC       H              22.4096175911        2.9459773904       14.0962483601  OAC       81              0.0000000000
      4233       228  OAC       LPO11          21.9190660752        0.7918864362       12.4351985808  OAC       81              0.0000000000
      4234       228  OAC       LPO12          22.1452382493        1.4094833112       12.4452552317  OAC       81              0.0000000000
      4235       228  OAC       LPO21          21.8930178077        2.1272587858       14.8706885465  OAC       81              0.0000000000
      4236       228  OAC       LPO22          22.1243651485        2.4539033867       14.3487090439  OAC       81              0.0000000000
      4237       229  OAC       C1            -21.7825607395        9.0698806578       12.2896647156  OAC       82              0.0000000000
      4238       229  OAC       DC1           -21.7981791030        9.0782866921       12.2821189862  OAC       82              0.0000000000
      4239       229  OAC       C2            -21.9170366770        8.7061044748       13.7880515873  OAC       82              0.0000000000
      4240       229  OAC       DC2           -21.9449868878        8.7196440949       13.7822135760  OAC       82              0.0000000000
      4241       229  OAC       H1            -22.9262242560        8.9959159638       14.1511916857  OAC       82              0.0000000000
      4242       229  OAC       H2            -21.1594198506        9.2488629654       14.3928250711  OAC       82              0.0000000000
      4243       229  OAC       H3            -21.7699958824        7.6131727302       13.9229597298  OAC       82              0.0000000000
      4244       229  OAC       O1            -20.9325379018        9.9633444482       12.0252825156  OAC       82              0.0000000000
      4245       229  OAC       DO1           -20.9418162080        9.9729035452       12.0328680807  OAC       82              0.0000000000
      4246       229  OAC       O2            -22.6503638739        8.5496893283       11.5040100120  OAC       82              0.0000000000
      4247       229  OAC       DO2           -22.6695123423        8.5482697783       11.5033582356  OAC       82              0.0000000000
      4248       229  OAC       H             -22.5542701198        8.8153262834       10.5770990138  OAC       82              0.0000000000
      4249       229  OAC       LPO11         -20.7785099006       10.0729476269       12.3198372951  OAC       82              0.0000000000
      4250       229  OAC       LPO12         -20.9252102356       10.0233431199       11.6805413595  OAC       82              0.0000000000
      4251       229  OAC       LPO21         -22.8722721729        8.3496836706       11.6863680217  OAC       82              0.0000000000
      4252       229  OAC       LPO22         -22.5906460333        8.6524723940       11.1748149013  OAC       82              0.0000000000
      4253       230  OAC       C1             -4.0031256727        3.0784526711       32.0252994563  OAC       83              0.0000000000
      4254       230  OAC       DC1            -4.0037980607        3.0643248567       32.0173173529  OAC       83              0.0000000000
      4255       230  OAC       C2             -4.9154176781        3.7974994552       31.0092157054  OAC       83              0.0000000000
      4256       230  OAC       DC2            -4.9154730967        3.7963015984       31.0112354042  OAC       83              0.0000000000
      4257       230  OAC       H1             -4.5605488222        3.5815291856       29.9788051372  OAC       83              0.0000000000
      4258       230  OAC       H2             -4.9139986851        4.8978752019       31.1624873698  OAC       83              0.0000000000
      4259       230  OAC       H3             -5.9508124034        3.4176063303       31.1432305418  OAC       83              0.0000000000
      4260       230  OAC       O1             -3.5577353437        3.8241961933       32.9405734002  OAC       83              0.0000000000
      4261       230  OAC       DO1            -3.5697770076        3.8294929785       32.9262533954  OAC       83              0.0000000000
      4262       230  OAC       O2             -3.7828874871        1.8339910525       31.8000173121  OAC       83              0.0000000000
      4263       230  OAC       DO2            -3.7821521790        1.8242349206       31.7889428852  OAC       83              0.0000000000
      4264       230  OAC       H              -3.2448849135        1.4044231984       32.4819159039  OAC       83              0.0000000000
      4265       230  OAC       LPO11          -3.6764170146        4.1506172069       32.8973995326  OAC       83              0.0000000000
      4266       230  OAC       LPO12          -3.3545477230        3.6392685183       33.1574063908  OAC       83              0.0000000000
      4267       230  OAC       LPO21          -3.9511093324        1.7332177398       31.5101101715  OAC       83              0.0000000000
      4268       230  OAC       LPO22          -3.5735912223        1.7026722857       32.0479093351  OAC       83              0.0000000000
      4269       231  OAC       C1              8.0429944365      -22.5389197002       11.8795837541  OAC       84              0.0000000000
      4270       231  OAC       DC1             8.0334503181      -22.5503612218       11.8675733168  OAC       84              0.0000000000
      4271       231  OAC       C2              9.2470851097      -21.6781510239       11.5040772587  OAC       84              0.0000000000
      4272       231  OAC       DC2             9.2305209791      -21.6885176753       11.5091407834  OAC       84              0.0000000000
      4273       231  OAC       H1              8.9240885455      -20.6159419631       11.4627719233  OAC       84              0.0000000000
      4274       231  OAC       H2              9.6512985756      -21.9444559725       10.5040701837  OAC       84              0.0000000000
      4275       231  OAC       H3             10.0512923022      -21.8062756688       12.2598258066  OAC       84              0.0000000000
      4276       231  OAC       O1              7.6837928808      -23.3170072318       10.9565683920  OAC       84              0.0000000000
      4277       231  OAC       DO1             7.6541385763      -23.3266572322       10.9579683148  OAC       84              0.0000000000
      4278       231  OAC       O2              7.5700379343      -22.4616223215       13.0659839944  OAC       84              0.0000000000
      4279       231  OAC       DO2             7.5771787619      -22.4735624710       13.0617620221  OAC       84              0.0000000000
      4280       231  OAC       H               6.8009196183      -23.0251525559       13.2387604131  OAC       84              0.0000000000
      4281       231  OAC       LPO11           7.8915991115      -23.2761590260       10.6779144946  OAC       84              0.0000000000
      4282       231  OAC       LPO12           7.4077085971      -23.5057565279       11.0597729051  OAC       84              0.0000000000
      4283       231  OAC       LPO21           7.7549258728      -22.2313046232       13.2537876366  OAC       84              0.0000000000
      4284       231  OAC       LPO22           7.2966549496      -22.6774768819       13.1001680902  OAC       84              0.0000000000
      4285       232  OAC       C1             15.1976749758       16.1209908434       -1.6398755522  OAC       85              0.0000000000
      4286       232  OAC       DC1            15.2065115687       16.1255502376       -1.6523835827  OAC       85              0.0000000000
      4287       232  OAC       C2             13.9978905081       15.8738267105       -0.7063431675  OAC       85              0.0000000000
      4288       232  OAC       DC2            14.0136687818       15.8700521365       -0.7156065287  OAC       85              0.0000000000
      4289       232  OAC       H1             13.6703841192       16.8364205570       -0.2586003264  OAC       85              0.0000000000
      4290       232  OAC       H2             14.2483077871       15.1618724060        0.1089685864  OAC       85              0.0000000000
      4291       232  OAC       H3             13.1703545264       15.4367526450       -1.3050680298  OAC       85              0.0000000000
      4292       232  OAC       O1             16.2474575523       15.4697860582       -1.3813418011  OAC       85              0.0000000000
      4293       232  OAC       DO1            16.2451231433       15.4575704247       -1.3895828791  OAC       85              0.0000000000
      4294       232  OAC       O2             15.0041952958       16.8781010498       -2.6540171217  OAC       85              0.0000000000
      4295       232  OAC       DO2            15.0078855445       16.8762848506       -2.6682017127  OAC       85              0.0000000000
      4296       232  OAC       H              15.7925375321       16.9863778444       -3.2069670780  OAC       85              0.0000000000
      4297       232  OAC       LPO11          16.1959705799       15.2658361015       -1.1016035183  OAC       85              0.0000000000
      4298       232  OAC       LPO12          16.4980796628       15.5502078123       -1.6120383532  OAC       85              0.0000000000
      4299       232  OAC       LPO21          14.6724472655       16.9895544233       -2.6586420420  OAC       85              0.0000000000
      4300       232  OAC       LPO22          15.2997625451       16.9082276016       -2.8390370991  OAC       85              0.0000000000
      4301       233  OAC       C1             14.1472015491      -19.2054047498       21.9591531052  OAC       86              0.0000000000
      4302       233  OAC       DC1            14.1640058520      -19.2230004708       21.9268076191  OAC       86              0.0000000000
      4303       233  OAC       C2             12.7891977250      -19.9147288075       22.1655838623  OAC       86              0.0000000000
      4304       233  OAC       DC2            12.8198527398      -19.9344601978       22.1535060705  OAC       86              0.0000000000
      4305       233  OAC       H1             12.8493910861      -20.5610055768       23.0672623516  OAC       86              0.0000000000
      4306       233  OAC       H2             12.5292298134      -20.5483946651       21.2908237430  OAC       86              0.0000000000
      4307       233  OAC       H3             11.9839764445      -19.1646745783       22.3184182254  OAC       86              0.0000000000
      4308       233  OAC       O1             14.7804238812      -19.5138002374       20.9058252381  OAC       86              0.0000000000
      4309       233  OAC       DO1            14.8093387827      -19.5213380365       20.8942451754  OAC       86              0.0000000000
      4310       233  OAC       O2             14.5941044655      -18.5167419709       22.9255476387  OAC       86              0.0000000000
      4311       233  OAC       DO2            14.5891218574      -18.5337284802       22.9123391867  OAC       86              0.0000000000
      4312       233  OAC       H              15.4359901396      -18.0719093243       22.7457882762  OAC       86              0.0000000000
      4313       233  OAC       LPO11          14.5989645446      -19.7498633185       20.7218504276  OAC       86              0.0000000000
      4314       233  OAC       LPO12          15.0815270343      -19.3360067581       20.8907796422  OAC       86              0.0000000000
      4315       233  OAC       LPO21          14.3710369144      -18.5296120332       23.1949455398  OAC       86              0.0000000000
      4316       233  OAC       LPO22          14.9015509044      -18.3738468022       22.8386128473  OAC       86              0.0000000000
      4317       234  OAC       C1            -27.3587298087      -36.2664093645      -33.1241953237  OAC       87              0.0000000000
      4318       234  OAC       DC1           -27.3569395148      -36.2668727664      -33.1260691335  OAC       87              0.0000000000
      4319       234  OAC       C2            -28.8680984064      -36.3336543236      -32.7971620719  OAC       87              0.0000000000
      4320       234  OAC       DC2           -28.8581364848      -36.3427120186      -32.7949993946  OAC       87              0.0000000000
      4321       234  OAC       H1            -29.1076865956      -35.5804322187      -32.0164092554  OAC       87              0.0000000000
      4322       234  OAC       H2            -29.1564558938      -37.3340221802      -32.4093024182  OAC       87              0.0000000000
      4323       234  OAC       H3            -29.4660948628      -36.1269167730      -33.7103875779  OAC       87              0.0000000000
      4324       234  OAC       O1            -26.6884545374      -37.1879576912      -32.5714036098  OAC       87              0.0000000000
      4325       234  OAC       DO1           -26.7008953013      -37.1964871355      -32.5777800794  OAC       87              0.0000000000
      4326       234  OAC       O2            -26.9731754116      -35.3948767117      -33.9826425310  OAC       87              0.0000000000
      4327       234  OAC       DO2           -26.9653900062      -35.3939980249      -33.9829759229  OAC       87              0.0000000000
      4328       234  OAC       H             -26.0122711604      -35.3320724029      -34.0907149088  OAC       87              0.0000000000
      4329       234  OAC       LPO11         -26.8999581102      -37.3928138034      -32.3821941703  OAC       87              0.0000000000
      4330       234  OAC       LPO12         -26.3502478338      -37.1573032289      -32.6561180099  OAC       87              0.0000000000
      4331       234  OAC       LPO21         -27.2479706085      -35.2124280903      -34.0996899587  OAC       87              0.0000000000
      4332       234  OAC       LPO22         -26.6264134064      -35.4146468010      -34.0258311326  OAC       87              0.0000000000
      4333       235  OAC       C1            -10.2061565970       -2.2506294298       10.0698912960  OAC       88              0.0000000000
      4334       235  OAC       DC1           -10.1754926365       -2.2628861261       10.0725498607  OAC       88              0.0000000000
      4335       235  OAC       C2             -8.9023225354       -1.4309109968        9.9106440356  OAC       88              0.0000000000
      4336       235  OAC       DC2            -8.8711514340       -1.4255305451        9.9059049283  OAC       88              0.0000000000
      4337       235  OAC       H1             -8.2508909209       -1.5815524637       10.7979235857  OAC       88              0.0000000000
      4338       235  OAC       H2             -9.1182133040       -0.3469018434        9.7982325914  OAC       88              0.0000000000
      4339       235  OAC       H3             -8.3789696323       -1.7894055873        8.9985561187  OAC       88              0.0000000000
      4340       235  OAC       O1            -11.2589480900       -1.5765203256        9.9714441758  OAC       88              0.0000000000
      4341       235  OAC       DO1           -11.2282074957       -1.5789601259        9.9624808006  OAC       88              0.0000000000
      4342       235  OAC       O2            -10.0329807338       -3.5111002060       10.2255453864  OAC       88              0.0000000000
      4343       235  OAC       DO2           -10.0129898781       -3.5194825648       10.2166781313  OAC       88              0.0000000000
      4344       235  OAC       H             -10.8540983314       -4.0156187872       10.3264804750  OAC       88              0.0000000000
      4345       235  OAC       LPO11         -11.1808386533       -1.2403688459        9.9131252373  OAC       88              0.0000000000
      4346       235  OAC       LPO12         -11.5380588223       -1.7839693943       10.0109673710  OAC       88              0.0000000000
      4347       235  OAC       LPO21          -9.6912044718       -3.5864042209       10.2212684671  OAC       88              0.0000000000
      4348       235  OAC       LPO22         -10.3424112114       -3.6712268993       10.2588953739  OAC       88              0.0000000000
      4349       236  OAC       C1            -31.1696872802      -30.0196252280      -22.1023942767  OAC       89              0.0000000000
      4350       236  OAC       DC1           -31.1715970142      -30.0201208662      -22.0973067874  OAC       89              0.0000000000
      4351       236  OAC       C2            -31.3604689097      -30.4035451264      -23.5845563314  OAC       89              0.0000000000
      4352       236  OAC       DC2           -31.3634574082      -30.4101919862      -23.5766828257  OAC       89              0.0000000000
      4353       236  OAC       H1            -31.7274997820      -29.5143498455      -24.1403810277  OAC       89              0.0000000000
      4354       236  OAC       H2            -32.1039963785      -31.2202904888      -23.7046184681  OAC       89              0.0000000000
      4355       236  OAC       H3            -30.3867285386      -30.7377282767      -24.0022551603  OAC       89              0.0000000000
      4356       236  OAC       O1            -31.8418747631      -30.7228853994      -21.2894269469  OAC       89              0.0000000000
      4357       236  OAC       DO1           -31.8461349525      -30.7257483307      -21.2899627255  OAC       89              0.0000000000
      4358       236  OAC       O2            -30.3672586793      -29.0520393938      -21.8547880804  OAC       89              0.0000000000
      4359       236  OAC       DO2           -30.3683976681      -29.0518952784      -21.8521958941  OAC       89              0.0000000000
      4360       236  OAC       H             -30.2812523340      -28.8239563461      -20.9169490580  OAC       89              0.0000000000
      4361       236  OAC       LPO11         -32.0289237787      -30.9617093272      -21.4640001328  OAC       89              0.0000000000
      4362       236  OAC       LPO12         -31.7817626972      -30.6168662370      -20.9613317218  OAC       89              0.0000000000
      4363       236  OAC       LPO21         -30.2337536681      -28.9278058293      -22.1535228013  OAC       89              0.0000000000
      4364       236  OAC       LPO22         -30.3508138911      -28.9954602336      -21.5097831999  OAC       89              0.0000000000
      4365       237  OAC       C1             33.2732305610       26.0808736610       36.8256707245  OAC       90              0.0000000000
      4366       237  OAC       DC1            33.2938994751       26.0841026342       36.8397215827  OAC       90              0.0000000000
      4367       237  OAC       C2             31.8634808250       26.3620545812       36.3029861056  OAC       90              0.0000000000
      4368       237  OAC       DC2            31.8869500711       26.3496461652       36.3321335991  OAC       90              0.0000000000
      4369       237  OAC       H1             31.9368830027       26.7098504044       35.2503840026  OAC       90              0.0000000000
      4370       237  OAC       H2             31.3615087681       27.1432824734       36.9129271151  OAC       90              0.0000000000
      4371       237  OAC       H3             31.2555434034       25.4321847360       36.2943164841  OAC       90              0.0000000000
      4372       237  OAC       O1             33.8265160272       26.9159875138       37.6124137900  OAC       90              0.0000000000
      4373       237  OAC       DO1            33.8362882628       26.9232230758       37.6226831066  OAC       90              0.0000000000
      4374       237  OAC       O2             33.7181519077       24.9455355437       36.4429450535  OAC       90              0.0000000000
      4375       237  OAC       DO2            33.7156231449       24.9438098444       36.4396285337  OAC       90              0.0000000000
      4376       237  OAC       H              34.6178460519       24.7486812202       36.7442087623  OAC       90              0.0000000000
      4377       237  OAC       LPO11          33.6110778390       27.1853553303       37.6718054267  OAC       90              0.0000000000
      4378       237  OAC       LPO12          34.1459476730       26.8035845597       37.7008954241  OAC       90              0.0000000000
      4379       237  OAC       LPO21          33.4791530261       24.7839127521       36.2448097264  OAC       90              0.0000000000
      4380       237  OAC       LPO22          34.0404964815       24.8944790787       36.5693856052  OAC       90              0.0000000000
      4381       238  OAC       C1             -8.3160837090       36.0219084233      -26.4522252663  OAC       91              0.0000000000
      4382       238  OAC       DC1            -8.3312789838       36.0089563657      -26.4563785342  OAC       91              0.0000000000
      4383       238  OAC       C2             -6.9497372686       35.8639515170      -27.1608483415  OAC       91              0.0000000000
      4384       238  OAC       DC2            -6.9599207360       35.8587771347      -27.1548995955  OAC       91              0.0000000000
      4385       238  OAC       H1             -6.5504964202       34.8478252594      -26.9548988973  OAC       91              0.0000000000
      4386       238  OAC       H2             -6.2163098546       36.6159940647      -26.7991340415  OAC       91              0.0000000000
      4387       238  OAC       H3             -7.0819618206       35.9916101189      -28.2565403379  OAC       91              0.0000000000
      4388       238  OAC       O1             -8.4244583457       36.9306590542      -25.5755819098  OAC       91              0.0000000000
      4389       238  OAC       DO1            -8.4222683756       36.9259239002      -25.5793475594  OAC       91              0.0000000000
      4390       238  OAC       O2             -9.2026848913       35.1715710105      -26.8204550504  OAC       91              0.0000000000
      4391       238  OAC       DO2            -9.2115135866       35.1558405170      -26.8250099814  OAC       91              0.0000000000
      4392       238  OAC       H             -10.0608280783       35.2695740403      -26.3811980887  OAC       91              0.0000000000
      4393       238  OAC       LPO11          -8.1213236095       37.1026108588      -25.5433033004  OAC       91              0.0000000000
      4394       238  OAC       LPO12          -8.7480666853       36.9303839498      -25.4422493674  OAC       91              0.0000000000
      4395       238  OAC       LPO21          -9.0694023112       34.9569615454      -27.0626915698  OAC       91              0.0000000000
      4396       238  OAC       LPO22          -9.5014800161       35.2274377264      -26.6469604296  OAC       91              0.0000000000
      4397       239  OAC       C1             14.5220962271       31.9617125343        1.4077426616  OAC       92              0.0000000000
      4398       239  OAC       DC1            14.5267823792       31.9710525113        1.4046799475  OAC       92              0.0000000000
      4399       239  OAC       C2             15.6702557782       32.9618349521        1.1204056065  OAC       92              0.0000000000
      4400       239  OAC       DC2            15.6804857827       32.9685782011        1.1088647570  OAC       92              0.0000000000
      4401       239  OAC       H1             16.5510728060       32.6957866457        1.7430617417  OAC       92              0.0000000000
      4402       239  OAC       H2             15.3674670858       34.0064771184        1.3470391256  OAC       92              0.0000000000
      4403       239  OAC       H3             15.9553488926       32.8980198995        0.0485051647  OAC       92              0.0000000000
      4404       239  OAC       O1             13.4480579596       32.4192300860        1.9005694777  OAC       92              0.0000000000
      4405       239  OAC       DO1            13.4523299266       32.4180751721        1.9016925960  OAC       92              0.0000000000
      4406       239  OAC       O2             14.7997876621       30.7626923438        1.0639629563  OAC       92              0.0000000000
      4407       239  OAC       DO2            14.8023144766       30.7708479288        1.0646434072  OAC       92              0.0000000000
      4408       239  OAC       H              14.0943190880       30.1235080058        1.2448454404  OAC       92              0.0000000000
      4409       239  OAC       LPO11          13.4749453667       32.7652620554        1.9457241394  OAC       92              0.0000000000
      4410       239  OAC       LPO12          13.2182484623       32.1596386287        1.9485264402  OAC       92              0.0000000000
      4411       239  OAC       LPO21          15.1217365379       30.7488391533        0.9273722887  OAC       92              0.0000000000
      4412       239  OAC       LPO22          14.5298654816       30.5519038993        1.1361450047  OAC       92              0.0000000000
      4413       240  OAC       C1              0.3441611554      -16.2824837333       31.5876424570  OAC       93              0.0000000000
      4414       240  OAC       DC1             0.3319280238      -16.2934493987       31.5855058165  OAC       93              0.0000000000
      4415       240  OAC       C2              1.1989125216      -17.4342311214       32.1752611301  OAC       93              0.0000000000
      4416       240  OAC       DC2             1.1865719322      -17.4420035701       32.1799188732  OAC       93              0.0000000000
      4417       240  OAC       H1              2.0822933933      -17.6058283920       31.5237140382  OAC       93              0.0000000000
      4418       240  OAC       H2              0.6117635646      -18.3752110817       32.2395558931  OAC       93              0.0000000000
      4419       240  OAC       H3              1.5443281414      -17.1521312368       33.1928213034  OAC       93              0.0000000000
      4420       240  OAC       O1             -0.8664871544      -16.5667237611       31.3199304310  OAC       93              0.0000000000
      4421       240  OAC       DO1            -0.8756607650      -16.5730869791       31.3199458896  OAC       93              0.0000000000
      4422       240  OAC       O2              0.9658415224      -15.1795070768       31.4356565058  OAC       93              0.0000000000
      4423       240  OAC       DO2             0.9630400742      -15.1919185575       31.4370716963  OAC       93              0.0000000000
      4424       240  OAC       H               0.4346495127      -14.4423661916       31.0988785905  OAC       93              0.0000000000
      4425       240  OAC       LPO11          -0.9313578460      -16.9012806679       31.3997017882  OAC       93              0.0000000000
      4426       240  OAC       LPO12          -1.0294726495      -16.2856636858       31.1897729783  OAC       93              0.0000000000
      4427       240  OAC       LPO21           1.2979603752      -15.2138388910       31.5406250445  OAC       93              0.0000000000
      4428       240  OAC       LPO22           0.7504405560      -14.9380960124       31.3021532411  OAC       93              0.0000000000
      4429       241  IM1       C1            -19.9308600354       16.6780354394       18.6442500418  IM1       1               0.0000000000
      4430       241  IM1       DC1           -19.9516299024       16.7153081906       18.6610761600  IM1       1               0.0000000000
      4431       241  IM1       H1            -20.8251719976       16.9576129041       19.2412119799  IM1       1               0.0000000000
      4432       241  IM1       H2            -19.9190135500       17.2081754048       17.6679651040  IM1       1               0.0000000000
      4433       241  IM1       H3            -18.9977723419       16.9073572978       19.2019953618  IM1       1               0.0000000000
      4434       241  IM1       N1            -19.9409737189       15.2830123439       18.4061669344  IM1       1               0.0000000000
      4435       241  IM1       DN1           -19.9372478967       15.3199917295       18.4076069953  IM1       1               0.0000000000
      4436       241  IM1       C2            -20.8606401671       14.3939730578       18.9040593475  IM1       1               0.0000000000
      4437       241  IM1       DC2           -20.8494121274       14.4386634066       18.9036630816  IM1       1               0.0000000000
      4438       241  IM1       H4            -21.7135486575       14.7032146172       19.4955031444  IM1       1               0.0000000000
      4439       241  IM1       C3            -20.4676060641       13.1472885716       18.4648775478  IM1       1               0.0000000000
      4440       241  IM1       DC3           -20.4758603541       13.1768249902       18.4718866337  IM1       1               0.0000000000
      4441       241  IM1       H5            -20.9535685142       12.1912564878       18.6156494013  IM1       1               0.0000000000
      4442       241  IM1       C4            -19.0292132989       14.5542770768       17.7078996105  IM1       1               0.0000000000
      4443       241  IM1       DC4           -19.0470347618       14.5714969671       17.7242483474  IM1       1               0.0000000000
      4444       241  IM1       H6            -18.1707635718       15.0015338502       17.2067754294  IM1       1               0.0000000000
      4445       241  IM1       N2            -19.3255326553       13.2634475482       17.7341879593  IM1       1               0.0000000000
      4446       241  IM1       DN2           -19.3346790631       13.2718913083       17.7451290646  IM1       1               0.0000000000
      4447       241  IM1       H7            -18.8171245056       12.5306689401       17.2819085476  IM1       1               0.0000000000
      4448       241  IM1       LPN21         -19.1678811105       13.0445677581       17.6028958122  IM1       1               0.0000000000
      4449       242  IM1       C1             23.3118490769       32.4511431155       -9.5813008924  IM1       2               0.0000000000
      4450       242  IM1       DC1            23.2994240763       32.4553542522       -9.5971037748  IM1       2               0.0000000000
      4451       242  IM1       H1             22.9386005297       31.4066172521       -9.5182751545  IM1       2               0.0000000000
      4452       242  IM1       H2             23.3007047548       32.7956168894      -10.6374896175  IM1       2               0.0000000000
      4453       242  IM1       H3             22.6831556882       33.1089425940       -8.9438328764  IM1       2               0.0000000000
      4454       242  IM1       N1             24.6493749592       32.5008219292       -9.0781952642  IM1       2               0.0000000000
      4455       242  IM1       DN1            24.6425037689       32.5173060376       -9.0902071597  IM1       2               0.0000000000
      4456       242  IM1       C2             25.4350360613       31.4638653705       -8.6290277706  IM1       2               0.0000000000
      4457       242  IM1       DC2            25.4184725797       31.4770217302       -8.6497151942  IM1       2               0.0000000000
      4458       242  IM1       H4             25.0581034687       30.4538269925       -8.5259098982  IM1       2               0.0000000000
      4459       242  IM1       C3             26.6437356977       32.0174480847       -8.2658234282  IM1       2               0.0000000000
      4460       242  IM1       DC3            26.6330121595       32.0281334890       -8.2740636942  IM1       2               0.0000000000
      4461       242  IM1       H5             27.5086489937       31.5218415509       -7.8425172087  IM1       2               0.0000000000
      4462       242  IM1       C4             25.4102388838       33.6170262517       -8.9785590640  IM1       2               0.0000000000
      4463       242  IM1       DC4            25.3999361859       33.6212832139       -8.9836651789  IM1       2               0.0000000000
      4464       242  IM1       H6             25.0448461982       34.6020836337       -9.2688178097  IM1       2               0.0000000000
      4465       242  IM1       N2             26.6173192032       33.3611078552       -8.5001566885  IM1       2               0.0000000000
      4466       242  IM1       DN2            26.6105532197       33.3679792077       -8.5017204372  IM1       2               0.0000000000
      4467       242  IM1       H7             27.3607170456       34.0182582080       -8.3756052462  IM1       2               0.0000000000
      4468       242  IM1       LPN21          26.8354179670       33.5621083778       -8.4550820931  IM1       2               0.0000000000
      4469       243  IM1       C1             25.3001764490       21.5617378173        6.5154730581  IM1       3               0.0000000000
      4470       243  IM1       DC1            25.3114753044       21.5857804579        6.5247930686  IM1       3               0.0000000000
      4471       243  IM1       H1             25.1687605750       22.0842405301        7.4870911852  IM1       3               0.0000000000
      4472       243  IM1       H2             26.2507198814       21.8613073287        6.0245084041  IM1       3               0.0000000000
      4473       243  IM1       H3             25.2968254828       20.4612946912        6.6682300455  IM1       3               0.0000000000
      4474       243  IM1       N1             24.2194532867       21.8899089596        5.6577034984  IM1       3               0.0000000000
      4475       243  IM1       DN1            24.2313536917       21.8887899581        5.6599452315  IM1       3               0.0000000000
      4476       243  IM1       C2             23.1472279463       22.7140163727        5.9233287057  IM1       3               0.0000000000
      4477       243  IM1       DC2            23.1776045292       22.7120278567        5.9410377099  IM1       3               0.0000000000
      4478       243  IM1       H4             22.9707377821       23.1443328481        6.9013716255  IM1       3               0.0000000000
      4479       243  IM1       C3             22.3964864820       22.7542577777        4.7656118198  IM1       3               0.0000000000
      4480       243  IM1       DC3            22.4156546848       22.7440151303        4.7805521257  IM1       3               0.0000000000
      4481       243  IM1       H5             21.4667254175       23.2737344577        4.5692006644  IM1       3               0.0000000000
      4482       243  IM1       C4             24.0835551762       21.4743897268        4.3769461757  IM1       3               0.0000000000
      4483       243  IM1       DC4            24.0873940020       21.4817312748        4.3922248246  IM1       3               0.0000000000
      4484       243  IM1       H6             24.7847179187       20.7861183118        3.9049787318  IM1       3               0.0000000000
      4485       243  IM1       N2             23.0016312411       21.9944499547        3.8086303409  IM1       3               0.0000000000
      4486       243  IM1       DN2            23.0060088430       21.9969291322        3.8116925422  IM1       3               0.0000000000
      4487       243  IM1       H7             22.6636952736       21.7929070098        2.8892937741  IM1       3               0.0000000000
      4488       243  IM1       LPN21          22.9131595804       21.9499103590        3.5254537358  IM1       3               0.0000000000
      4489       244  IM1       C1            -31.7764152715        7.0043684539        6.4486661304  IM1       4               0.0000000000
      4490       244  IM1       DC1           -31.7527730136        6.9856834419        6.4403348110  IM1       4               0.0000000000
      4491       244  IM1       H1            -32.1839652015        5.9791236878        6.5794224867  IM1       4               0.0000000000
      4492       244  IM1       H2            -32.2160090247        7.4637414105        5.5375926873  IM1       4               0.0000000000
      4493       244  IM1       H3            -32.0303700714        7.6165920705        7.3402995774  IM1       4               0.0000000000
      4494       244  IM1       N1            -30.3543113149        6.9518011488        6.3099810731  IM1       4               0.0000000000
      4495       244  IM1       DN1           -30.3349348796        6.9505684872        6.2958571389  IM1       4               0.0000000000
      4496       244  IM1       C2            -29.5982127706        5.8069141051        6.2754690235  IM1       4               0.0000000000
      4497       244  IM1       DC2           -29.5994532397        5.8152610072        6.2533305863  IM1       4               0.0000000000
      4498       244  IM1       H4            -30.0512889679        4.8431556552        6.4723969539  IM1       4               0.0000000000
      4499       244  IM1       C3            -28.2905341496        6.2045163222        6.1099331643  IM1       4               0.0000000000
      4500       244  IM1       DC3           -28.2810709260        6.2067904562        6.0704578944  IM1       4               0.0000000000
      4501       244  IM1       H5            -27.3960074346        5.5940917268        6.1195648605  IM1       4               0.0000000000
      4502       244  IM1       C4            -29.4894023336        7.9852796284        6.1059818153  IM1       4               0.0000000000
      4503       244  IM1       DC4           -29.4863064856        7.9755596150        6.0848534837  IM1       4               0.0000000000
      4504       244  IM1       H6            -29.8217286159        9.0233813170        6.1080131194  IM1       4               0.0000000000
      4505       244  IM1       N2            -28.2450589547        7.5524351661        5.9017120456  IM1       4               0.0000000000
      4506       244  IM1       DN2           -28.2420153134        7.5503268576        5.8708694272  IM1       4               0.0000000000
      4507       244  IM1       H7            -27.4238931250        8.1186107601        5.8300749260  IM1       4               0.0000000000
      4508       244  IM1       LPN21         -28.0083329832        7.7204469162        5.8259963519  IM1       4               0.0000000000
      4509       245  IM1       C1            -20.0370883891       32.4359453223      -23.0947415899  IM1       5               0.0000000000
      4510       245  IM1       DC1           -20.0253886726       32.4522358750      -23.1043383381  IM1       5               0.0000000000
      4511       245  IM1       H1            -20.9827791398       33.0190236939      -23.0978429001  IM1       5               0.0000000000
      4512       245  IM1       H2            -19.9569309857       31.8576302769      -22.1495180711  IM1       5               0.0000000000
      4513       245  IM1       H3            -20.0224826404       31.7472031672      -23.9663733447  IM1       5               0.0000000000
      4514       245  IM1       N1            -18.9330581590       33.3287280112      -23.1892102169  IM1       5               0.0000000000
      4515       245  IM1       DN1           -18.9202595383       33.3384683056      -23.1975267528  IM1       5               0.0000000000
      4516       245  IM1       C2            -19.0101847039       34.6936236530      -23.3622055244  IM1       5               0.0000000000
      4517       245  IM1       DC2           -19.0052919513       34.6923974852      -23.3652942986  IM1       5               0.0000000000
      4518       245  IM1       H4            -19.9609795061       35.2100907281      -23.3159453429  IM1       5               0.0000000000
      4519       245  IM1       C3            -17.7129397112       35.1311110070      -23.4815534936  IM1       5               0.0000000000
      4520       245  IM1       DC3           -17.7072855247       35.1457494207      -23.4821802823  IM1       5               0.0000000000
      4521       245  IM1       H5            -17.3660235422       36.1539984905      -23.5605431616  IM1       5               0.0000000000
      4522       245  IM1       C4            -17.6116753428       32.9985304678      -23.2203267590  IM1       5               0.0000000000
      4523       245  IM1       DC4           -17.6171313397       33.0007182134      -23.2342440572  IM1       5               0.0000000000
      4524       245  IM1       H6            -17.2629836099       31.9722218571      -23.1054150051  IM1       5               0.0000000000
      4525       245  IM1       N2            -16.8522445627       34.0690848606      -23.4205002555  IM1       5               0.0000000000
      4526       245  IM1       DN2           -16.8516704176       34.0732532785      -23.4293146190  IM1       5               0.0000000000
      4527       245  IM1       H7            -15.8526895744       34.0967217826      -23.4317263806  IM1       5               0.0000000000
      4528       245  IM1       LPN21         -16.5533478153       34.0706062842      -23.4461599444  IM1       5               0.0000000000
      4529       246  IM1       C1              1.5973328395       14.0171504201       15.6823595781  IM1       6               0.0000000000
      4530       246  IM1       DC1             1.5606954082       14.0190771237       15.6623284008  IM1       6               0.0000000000
      4531       246  IM1       H1              2.0406899063       13.0018333531       15.7653461225  IM1       6               0.0000000000
      4532       246  IM1       H2              1.8776374026       14.6030412806       16.5837375521  IM1       6               0.0000000000
      4533       246  IM1       H3              1.9818095972       14.5105084669       14.7641567353  IM1       6               0.0000000000
      4534       246  IM1       N1              0.1779124608       13.9094379892       15.6065099859  IM1       6               0.0000000000
      4535       246  IM1       DN1             0.1442299993       13.9136360106       15.6006167353  IM1       6               0.0000000000
      4536       246  IM1       C2             -0.5345114992       12.7360785004       15.5890637226  IM1       6               0.0000000000
      4537       246  IM1       DC2            -0.5425835994       12.7402651693       15.5746579420  IM1       6               0.0000000000
      4538       246  IM1       H4             -0.0247741664       11.7954751461       15.7573556754  IM1       6               0.0000000000
      4539       246  IM1       C3             -1.8593459681       13.0892818709       15.4553511065  IM1       6               0.0000000000
      4540       246  IM1       DC3            -1.8768250235       13.1058291465       15.4502961387  IM1       6               0.0000000000
      4541       246  IM1       H5             -2.7224229297       12.4351400477       15.4460971590  IM1       6               0.0000000000
      4542       246  IM1       C4             -0.7331222124       14.9151664983       15.4776294752  IM1       6               0.0000000000
      4543       246  IM1       DC4            -0.7449368632       14.9220861549       15.4776678460  IM1       6               0.0000000000
      4544       246  IM1       H6             -0.4244257236       15.9600106905       15.4443564870  IM1       6               0.0000000000
      4545       246  IM1       N2             -1.9812285303       14.4539551934       15.3998031800  IM1       6               0.0000000000
      4546       246  IM1       DN2            -2.0003102734       14.4693422787       15.4013729738  IM1       6               0.0000000000
      4547       246  IM1       H7             -2.8239468918       14.9854845773       15.3143498179  IM1       6               0.0000000000
      4548       246  IM1       LPN21          -2.2308209115       14.6186157674       15.3755021803  IM1       6               0.0000000000
      4549       247  IM1       C1             -9.6130967875        4.8817452375       35.9608452471  IM1       7               0.0000000000
      4550       247  IM1       DC1            -9.6196569958        4.8968337282       35.9591861347  IM1       7               0.0000000000
      4551       247  IM1       H1             -9.6450578867        5.9402492118       36.2968048076  IM1       7               0.0000000000
      4552       247  IM1       H2             -8.7061388289        4.7131368869       35.3417172426  IM1       7               0.0000000000
      4553       247  IM1       H3             -9.6020898569        4.2050883363       36.8419441550  IM1       7               0.0000000000
      4554       247  IM1       N1            -10.7710169430        4.5908515640       35.1736923870  IM1       7               0.0000000000
      4555       247  IM1       DN1           -10.7712526370        4.5892917008       35.1688278103  IM1       7               0.0000000000
      4556       247  IM1       C2            -11.6874384190        5.5075747449       34.7205412986  IM1       7               0.0000000000
      4557       247  IM1       DC2           -11.6783371974        5.5037078476       34.7305338348  IM1       7               0.0000000000
      4558       247  IM1       H4            -11.6679348491        6.5380251284       35.0532282654  IM1       7               0.0000000000
      4559       247  IM1       C3            -12.5594976708        4.8175245554       33.9033706473  IM1       7               0.0000000000
      4560       247  IM1       DC3           -12.5564558829        4.8196465204       33.8960751765  IM1       7               0.0000000000
      4561       247  IM1       H5            -13.4433881199        5.1922528609       33.4021667257  IM1       7               0.0000000000
      4562       247  IM1       C4            -11.1103601215        3.3987991367       34.6059762480  IM1       7               0.0000000000
      4563       247  IM1       DC4           -11.1110473366        3.4108655008       34.6041644578  IM1       7               0.0000000000
      4564       247  IM1       H6            -10.5130999761        2.5014877565       34.7678793227  IM1       7               0.0000000000
      4565       247  IM1       N2            -12.1790935291        3.5098753612       33.8211950728  IM1       7               0.0000000000
      4566       247  IM1       DN2           -12.1774135452        3.5119429022       33.8109775657  IM1       7               0.0000000000
      4567       247  IM1       H7            -12.6319375504        2.7771178247       33.3132593631  IM1       7               0.0000000000
      4568       247  IM1       LPN21         -12.3057368442        3.2896259416       33.6616592964  IM1       7               0.0000000000
      4569       248  IM1       C1            -12.8928729382       13.0649477983       35.9815647946  IM1       8               0.0000000000
      4570       248  IM1       DC1           -12.8786419152       13.1025472705       35.9734231304  IM1       8               0.0000000000
      4571       248  IM1       H1            -12.0178205115       13.3264581408       35.3489380553  IM1       8               0.0000000000
      4572       248  IM1       H2            -12.6922821391       13.2959039043       37.0496207907  IM1       8               0.0000000000
      4573       248  IM1       H3            -13.8025892532       13.5976826407       35.6309498857  IM1       8               0.0000000000
      4574       248  IM1       N1            -13.1391375205       11.6764568221       35.8693813145  IM1       8               0.0000000000
      4575       248  IM1       DN1           -13.1366261824       11.7172555533       35.8746444998  IM1       8               0.0000000000
      4576       248  IM1       C2            -12.4119567034       10.7736903865       35.1291790899  IM1       8               0.0000000000
      4577       248  IM1       DC2           -12.4092351963       10.8287177486       35.1362349443  IM1       8               0.0000000000
      4578       248  IM1       H4            -11.5279003071       11.0451307019       34.5655715640  IM1       8               0.0000000000
      4579       248  IM1       C3            -13.0505871438        9.5618936137       35.2733817185  IM1       8               0.0000000000
      4580       248  IM1       DC3           -13.0261332493        9.6003241625       35.2692086349  IM1       8               0.0000000000
      4581       248  IM1       H5            -12.7847265124        8.5876804798       34.8820814575  IM1       8               0.0000000000
      4582       248  IM1       C4            -14.1712035098       10.9921135160       36.4242847826  IM1       8               0.0000000000
      4583       248  IM1       DC4           -14.1508737330       11.0190916704       36.4114812301  IM1       8               0.0000000000
      4584       248  IM1       H6            -14.9032200474       11.4423839125       37.0947386279  IM1       8               0.0000000000
      4585       248  IM1       N2            -14.1559258531        9.7297014571       36.0461170687  IM1       8               0.0000000000
      4586       248  IM1       DN2           -14.1404631123        9.7522562529       36.0310213570  IM1       8               0.0000000000
      4587       248  IM1       H7            -14.7604533081        9.0069696819       36.3810877200  IM1       8               0.0000000000
      4588       248  IM1       LPN21         -14.3610577648        9.5237768330       36.1203864970  IM1       8               0.0000000000
      4589       249  IM1       C1            -23.9828575665       -0.5489952605      -36.5214590963  IM1       9               0.0000000000
      4590       249  IM1       DC1           -23.9958812002       -0.5627369172      -36.5211356355  IM1       9               0.0000000000
      4591       249  IM1       H1            -25.0375751583       -0.4897253344      -36.1773967770  IM1       9               0.0000000000
      4592       249  IM1       H2            -23.8975507387       -0.0086583435      -37.4884543196  IM1       9               0.0000000000
      4593       249  IM1       H3            -23.3007271026       -0.1068211002      -35.7641605804  IM1       9               0.0000000000
      4594       249  IM1       N1            -23.6307788148       -1.8965225519      -36.7882252091  IM1       9               0.0000000000
      4595       249  IM1       DN1           -23.6356929849       -1.9081206924      -36.7887882790  IM1       9               0.0000000000
      4596       249  IM1       C2            -24.5382796247       -2.8963179817      -37.0476859693  IM1       9               0.0000000000
      4597       249  IM1       DC2           -24.5482576927       -2.8876047201      -37.0489495339  IM1       9               0.0000000000
      4598       249  IM1       H4            -25.6032954275       -2.7088938492      -36.9885037549  IM1       9               0.0000000000
      4599       249  IM1       C3            -23.7993301596       -4.0183969503      -37.3457670558  IM1       9               0.0000000000
      4600       249  IM1       DC3           -23.8044351296       -4.0162421149      -37.3466200041  IM1       9               0.0000000000
      4601       249  IM1       H5            -24.1507442772       -5.0169150080      -37.5745875235  IM1       9               0.0000000000
      4602       249  IM1       C4            -22.3929261234       -2.4311045353      -36.9860686106  IM1       9               0.0000000000
      4603       249  IM1       DC4           -22.4166085628       -2.4364570822      -36.9965673236  IM1       9               0.0000000000
      4604       249  IM1       H6            -21.4746440652       -1.8526223874      -36.8849920740  IM1       9               0.0000000000
      4605       249  IM1       N2            -22.4720239265       -3.7134413941      -37.3237861147  IM1       9               0.0000000000
      4606       249  IM1       DN2           -22.4829660596       -3.7147476190      -37.3327586288  IM1       9               0.0000000000
      4607       249  IM1       H7            -21.7027377471       -4.3240960915      -37.5116680320  IM1       9               0.0000000000
      4608       249  IM1       LPN21         -22.2403368178       -3.8947932613      -37.3823743723  IM1       9               0.0000000000
      4609       250  IM1       C1            -36.1270990687      -17.8463362519      -19.5782968630  IM1       10              0.0000000000
      4610       250  IM1       DC1           -36.1443954531      -17.8400309029      -19.5673723526  IM1       10              0.0000000000
      4611       250  IM1       H1            -37.1933595844      -17.7051202129      -19.2999669415  IM1       10              0.0000000000
      4612       250  IM1       H2            -35.4907655786      -17.8325278243      -18.6676871679  IM1       10              0.0000000000
      4613       250  IM1       H3            -35.9995229982      -18.8132528522      -20.1103848583  IM1       10              0.0000000000
      4614       250  IM1       N1            -35.6983514974      -16.7921448646      -20.4461546901  IM1       10              0.0000000000
      4615       250  IM1       DN1           -35.7030488034      -16.7892857994      -20.4403550248  IM1       10              0.0000000000
      4616       250  IM1       C2            -36.4352254425      -15.7348875582      -20.9311185829  IM1       10              0.0000000000
      4617       250  IM1       DC2           -36.4448775291      -15.7410787031      -20.9140932741  IM1       10              0.0000000000
      4618       250  IM1       H4            -37.5177029972      -15.7557546750      -20.9574986337  IM1       10              0.0000000000
      4619       250  IM1       C3            -35.5581462729      -14.9119077541      -21.6009948310  IM1       10              0.0000000000
      4620       250  IM1       DC3           -35.5611845435      -14.9174212875      -21.5926552865  IM1       10              0.0000000000
      4621       250  IM1       H5            -35.7728905912      -13.9930241179      -22.1324332007  IM1       10              0.0000000000
      4622       250  IM1       C4            -34.4239027390      -16.5781674064      -20.8557227570  IM1       10              0.0000000000
      4623       250  IM1       DC4           -34.4416235113      -16.5690365733      -20.8521985436  IM1       10              0.0000000000
      4624       250  IM1       H6            -33.6428873541      -17.3151760640      -20.6688184845  IM1       10              0.0000000000
      4625       250  IM1       N2            -34.2999099433      -15.4325992905      -21.5220860390  IM1       10              0.0000000000
      4626       250  IM1       DN2           -34.2931219011      -15.4220287255      -21.5178331539  IM1       10              0.0000000000
      4627       250  IM1       H7            -33.4849395961      -15.1030202763      -21.9987421063  IM1       10              0.0000000000
      4628       250  IM1       LPN21         -34.0449682891      -15.3173986597      -21.6304076325  IM1       10              0.0000000000
      4629       251  IM1       C1             19.4726361267       21.2945794134      -16.6870779556  IM1       11              0.0000000000
      4630       251  IM1       DC1            19.4664473832       21.2782181327      -16.6844099248  IM1       11              0.0000000000
      4631       251  IM1       H1             18.8624126649       20.4655955599      -17.1050900355  IM1       11              0.0000000000
      4632       251  IM1       H2             19.6798275799       22.0324532617      -17.4914005813  IM1       11              0.0000000000
      4633       251  IM1       H3             18.9237387722       21.8015004857      -15.8648470145  IM1       11              0.0000000000
      4634       251  IM1       N1             20.7068434281       20.7684778735      -16.1834309362  IM1       11              0.0000000000
      4635       251  IM1       DN1            20.7068382014       20.7681570169      -16.1793521688  IM1       11              0.0000000000
      4636       251  IM1       C2             21.0577392392       19.4363188061      -16.1469231858  IM1       11              0.0000000000
      4637       251  IM1       DC2            21.0447856619       19.4461988631      -16.1438159618  IM1       11              0.0000000000
      4638       251  IM1       H4             20.4413824188       18.6679290903      -16.5970015285  IM1       11              0.0000000000
      4639       251  IM1       C3             22.2842242652       19.3785756957      -15.5226612899  IM1       11              0.0000000000
      4640       251  IM1       DC3            22.2767137292       19.3747539153      -15.5117011986  IM1       11              0.0000000000
      4641       251  IM1       H5             22.8924766443       18.5049278669      -15.3235193440  IM1       11              0.0000000000
      4642       251  IM1       C4             21.7128062977       21.4507069254      -15.5637406640  IM1       11              0.0000000000
      4643       251  IM1       DC4            21.7026652495       21.4422583812      -15.5645731356  IM1       11              0.0000000000
      4644       251  IM1       H6             21.7071869009       22.5363931833      -15.4670257644  IM1       11              0.0000000000
      4645       251  IM1       N2             22.6728553253       20.6315719878      -15.1473898380  IM1       11              0.0000000000
      4646       251  IM1       DN2            22.6698759952       20.6244849572      -15.1466119515  IM1       11              0.0000000000
      4647       251  IM1       H7             23.5214711263       20.8945928694      -14.6884004720  IM1       11              0.0000000000
      4648       251  IM1       LPN21          22.9221478254       20.7118226800      -15.0010577644  IM1       11              0.0000000000
      4649       252  IM1       C1            -13.2806181495       -9.2185699157      -10.3181580225  IM1       12              0.0000000000
      4650       252  IM1       DC1           -13.2804124414       -9.2247007087      -10.3079918534  IM1       12              0.0000000000
      4651       252  IM1       H1            -13.5709990627      -10.1490835934      -10.8512098231  IM1       12              0.0000000000
      4652       252  IM1       H2            -13.9836242924       -8.4000579984      -10.5830006250  IM1       12              0.0000000000
      4653       252  IM1       H3            -13.2727107181       -9.3976349934       -9.2217118674  IM1       12              0.0000000000
      4654       252  IM1       N1            -11.9692867163       -8.8450644209      -10.7258384130  IM1       12              0.0000000000
      4655       252  IM1       DN1           -11.9689041900       -8.8409405253      -10.7171137781  IM1       12              0.0000000000
      4656       252  IM1       C2            -11.1789829262       -9.5058126390      -11.6389302676  IM1       12              0.0000000000
      4657       252  IM1       DC2           -11.1849088489       -9.4954395423      -11.6265382841  IM1       12              0.0000000000
      4658       252  IM1       H4            -11.5329251885      -10.3887780943      -12.1566037936  IM1       12              0.0000000000
      4659       252  IM1       C3             -9.9979525541       -8.8013115218      -11.6963927563  IM1       12              0.0000000000
      4660       252  IM1       DC3            -9.9915991077       -8.8072627170      -11.6826703204  IM1       12              0.0000000000
      4661       252  IM1       H5             -9.1321229265       -8.9884840583      -12.3194453212  IM1       12              0.0000000000
      4662       252  IM1       C4            -11.2397951134       -7.7958036321      -10.2580475164  IM1       12              0.0000000000
      4663       252  IM1       DC4           -11.2388161350       -7.8052878948      -10.2560059758  IM1       12              0.0000000000
      4664       252  IM1       H6            -11.6415584818       -7.0741451261       -9.5467844171  IM1       12              0.0000000000
      4665       252  IM1       N2            -10.0215736194       -7.7786120157      -10.7851809916  IM1       12              0.0000000000
      4666       252  IM1       DN2           -10.0080451178       -7.7857457975      -10.7676615764  IM1       12              0.0000000000
      4667       252  IM1       H7             -9.3296760223       -7.0676494018      -10.6594436593  IM1       12              0.0000000000
      4668       252  IM1       LPN21          -9.8017011227       -7.5871637292      -10.7144445881  IM1       12              0.0000000000
      4669       253  IM1       C1            -12.8974173192      -24.9554437982      -24.4530072731  IM1       13              0.0000000000
      4670       253  IM1       DC1           -12.8842481058      -24.9634207889      -24.4447573553  IM1       13              0.0000000000
      4671       253  IM1       H1            -12.3304916348      -24.0113786931      -24.3058429240  IM1       13              0.0000000000
      4672       253  IM1       H2            -13.5262742526      -25.1421510048      -23.5563465916  IM1       13              0.0000000000
      4673       253  IM1       H3            -13.5380764630      -24.8679925154      -25.3564612760  IM1       13              0.0000000000
      4674       253  IM1       N1            -11.9804408768      -26.0441604037      -24.6365353273  IM1       13              0.0000000000
      4675       253  IM1       DN1           -11.9833567363      -26.0640925411      -24.6349000347  IM1       13              0.0000000000
      4676       253  IM1       C2            -10.6071190194      -25.9721939418      -24.7067789693  IM1       13              0.0000000000
      4677       253  IM1       DC2           -10.6254929350      -25.9782915295      -24.7147364906  IM1       13              0.0000000000
      4678       253  IM1       H4            -10.0915941786      -25.0331979334      -24.5473749708  IM1       13              0.0000000000
      4679       253  IM1       C3            -10.1380286831      -27.2620393090      -24.8057419405  IM1       13              0.0000000000
      4680       253  IM1       DC3           -10.1494633291      -27.2741266122      -24.8106149738  IM1       13              0.0000000000
      4681       253  IM1       H5             -9.1110866711      -27.6049127133      -24.8325175352  IM1       13              0.0000000000
      4682       253  IM1       C4            -12.2857134310      -27.3630433614      -24.7325944848  IM1       13              0.0000000000
      4683       253  IM1       DC4           -12.2914255766      -27.3693863539      -24.7374826697  IM1       13              0.0000000000
      4684       253  IM1       H6            -13.3166689422      -27.7165267268      -24.7493349867  IM1       13              0.0000000000
      4685       253  IM1       N2            -11.1966865500      -28.1209005761      -24.8352372411  IM1       13              0.0000000000
      4686       253  IM1       DN2           -11.2015285229      -28.1306873946      -24.8395504380  IM1       13              0.0000000000
      4687       253  IM1       H7            -11.1668719825      -29.1159370140      -24.9301771103  IM1       13              0.0000000000
      4688       253  IM1       LPN21         -11.1911232693      -28.4198522894      -24.8596692494  IM1       13              0.0000000000
      4689       254  IM1       C1             32.7426072441      -19.7677665129       35.7189371058  IM1       14              0.0000000000
      4690       254  IM1       DC1            32.7284238438      -19.7628860034       35.7136024344  IM1       14              0.0000000000
      4691       254  IM1       H1             32.1217088018      -19.6074449142       36.6261874077  IM1       14              0.0000000000
      4692       254  IM1       H2             32.1289168039      -19.6037116993       34.8074596994  IM1       14              0.0000000000
      4693       254  IM1       H3             33.6161643442      -19.0815048813       35.7351841323  IM1       14              0.0000000000
      4694       254  IM1       N1             33.2197521030      -21.1096898815       35.7078128357  IM1       14              0.0000000000
      4695       254  IM1       DN1            33.2173259648      -21.1014203258       35.6998746839  IM1       14              0.0000000000
      4696       254  IM1       C2             32.9475919357      -22.0750877832       36.6484685788  IM1       14              0.0000000000
      4697       254  IM1       DC2            32.9476318076      -22.0619409654       36.6322788398  IM1       14              0.0000000000
      4698       254  IM1       H4             32.3625029013      -21.8655383664       37.5354008557  IM1       14              0.0000000000
      4699       254  IM1       C3             33.5796573354      -23.2169440130       36.2160850289  IM1       14              0.0000000000
      4700       254  IM1       DC3            33.5785229431      -23.2220486620       36.2119836224  IM1       14              0.0000000000
      4701       254  IM1       H5             33.6493931775      -24.1772755899       36.7118563216  IM1       14              0.0000000000
      4702       254  IM1       C4             33.9899388040      -21.7011848578       34.7546162681  IM1       14              0.0000000000
      4703       254  IM1       DC4            33.9777762412      -21.6941270181       34.7593702801  IM1       14              0.0000000000
      4704       254  IM1       H6             34.3729723555      -21.1597823347       33.8895910624  IM1       14              0.0000000000
      4705       254  IM1       N2             34.1966765357      -22.9836353143       35.0261777454  IM1       14              0.0000000000
      4706       254  IM1       DN2            34.1919718390      -22.9831305133       35.0320589992  IM1       14              0.0000000000
      4707       254  IM1       H7             34.7601632854      -23.6170100309       34.4957824670  IM1       14              0.0000000000
      4708       254  IM1       LPN21          34.3492848170      -23.1779483786       34.8560215068  IM1       14              0.0000000000
      4709       255  IM1       C1             21.5706223101        0.5402247296        4.3173349983  IM1       15              0.0000000000
      4710       255  IM1       DC1            21.5787048785        0.5300868406        4.3015957416  IM1       15              0.0000000000
      4711       255  IM1       H1             21.6607441529       -0.5580223333        4.4589416464  IM1       15              0.0000000000
      4712       255  IM1       H2             20.7437538883        0.7629727420        3.6095264535  IM1       15              0.0000000000
      4713       255  IM1       H3             21.3667405522        1.0240493540        5.2964503966  IM1       15              0.0000000000
      4714       255  IM1       N1             22.7920061153        1.0697733121        3.7934502459  IM1       15              0.0000000000
      4715       255  IM1       DN1            22.7963150997        1.0716526410        3.7847771709  IM1       15              0.0000000000
      4716       255  IM1       C2             23.9250220907        0.3660172700        3.4399559598  IM1       15              0.0000000000
      4717       255  IM1       DC2            23.9100107709        0.3542519378        3.4404526516  IM1       15              0.0000000000
      4718       255  IM1       H4             24.0065034033       -0.7045914027        3.5815429143  IM1       15              0.0000000000
      4719       255  IM1       C3             24.8247647256        1.2970291963        2.9655148238  IM1       15              0.0000000000
      4720       255  IM1       DC3            24.8181890579        1.2905347766        2.9666732045  IM1       15              0.0000000000
      4721       255  IM1       H5             25.8332026231        1.1358224022        2.6050229677  IM1       15              0.0000000000
      4722       255  IM1       C4             23.0464553924        2.3776218048        3.5137570979  IM1       15              0.0000000000
      4723       255  IM1       DC4            23.0418063461        2.3668368188        3.5085822623  IM1       15              0.0000000000
      4724       255  IM1       H6             22.3190353766        3.1664120799        3.7055122089  IM1       15              0.0000000000
      4725       255  IM1       N2             24.2597226978        2.5408485128        2.9980824343  IM1       15              0.0000000000
      4726       255  IM1       DN2            24.2581326828        2.5373566833        2.9930493726  IM1       15              0.0000000000
      4727       255  IM1       H7             24.6871937571        3.4067171520        2.7381978577  IM1       15              0.0000000000
      4728       255  IM1       LPN21          24.3795159529        2.8009935477        2.9087844116  IM1       15              0.0000000000
      4729       256  IM1       C1             24.5032303434      -22.0163909628       17.1679146487  IM1       16              0.0000000000
      4730       256  IM1       DC1            24.4929711798      -22.0059352555       17.1704012153  IM1       16              0.0000000000
      4731       256  IM1       H1             23.8784396854      -21.4802370961       16.4219276080  IM1       16              0.0000000000
      4732       256  IM1       H2             25.5445563172      -22.1132873704       16.7929849166  IM1       16              0.0000000000
      4733       256  IM1       H3             24.4847350304      -21.4725984801       18.1365573381  IM1       16              0.0000000000
      4734       256  IM1       N1             23.9826125043      -23.3250323565       17.3660306283  IM1       16              0.0000000000
      4735       256  IM1       DN1            23.9921274096      -23.3214111881       17.3829613171  IM1       16              0.0000000000
      4736       256  IM1       C2             22.8714299879      -23.8548246752       16.7615224935  IM1       16              0.0000000000
      4737       256  IM1       DC2            22.8850151595      -23.8263279167       16.7730851987  IM1       16              0.0000000000
      4738       256  IM1       H4             22.3540437529      -23.3433432855       15.9592835815  IM1       16              0.0000000000
      4739       256  IM1       C3             22.6227852200      -25.0547823363       17.3931587832  IM1       16              0.0000000000
      4740       256  IM1       DC3            22.6303364345      -25.0286849875       17.4091154519  IM1       16              0.0000000000
      4741       256  IM1       H5             21.8401790243      -25.7727954570       17.1813246477  IM1       16              0.0000000000
      4742       256  IM1       C4             24.3756137232      -24.2174174190       18.3122566559  IM1       16              0.0000000000
      4743       256  IM1       DC4            24.3692656358      -24.2052125405       18.3300352708  IM1       16              0.0000000000
      4744       256  IM1       H6             25.2752398620      -24.0799628627       18.9121558603  IM1       16              0.0000000000
      4745       256  IM1       N2             23.5447661949      -25.2444207768       18.3906772647  IM1       16              0.0000000000
      4746       256  IM1       DN2            23.5457314593      -25.2332754356       18.4121279764  IM1       16              0.0000000000
      4747       256  IM1       H7             23.6596089832      -26.0690006435       18.9446440302  IM1       16              0.0000000000
      4748       256  IM1       LPN21          23.5616158341      -25.4687743487       18.5891251531  IM1       16              0.0000000000
      4749       257  IM1       C1            -30.9453690576        6.9444034735       15.6597007880  IM1       17              0.0000000000
      4750       257  IM1       DC1           -30.9471493203        6.9551126130       15.6754820238  IM1       17              0.0000000000
      4751       257  IM1       H1            -31.4248387780        7.5765543613       14.8820022330  IM1       17              0.0000000000
      4752       257  IM1       H2            -31.6943818967        6.2049119481       16.0153031672  IM1       17              0.0000000000
      4753       257  IM1       H3            -30.0442113055        6.4545945691       15.2327078799  IM1       17              0.0000000000
      4754       257  IM1       N1            -30.5686427143        7.7992543163       16.7108067072  IM1       17              0.0000000000
      4755       257  IM1       DN1           -30.5653018063        7.8039199536       16.7240209239  IM1       17              0.0000000000
      4756       257  IM1       C2            -30.6932906859        9.1663573126       16.6852832220  IM1       17              0.0000000000
      4757       257  IM1       DC2           -30.6941985759        9.1588996647       16.6926155886  IM1       17              0.0000000000
      4758       257  IM1       H4            -31.0951654018        9.6695105481       15.8145234755  IM1       17              0.0000000000
      4759       257  IM1       C3            -30.2070189212        9.6026133770       17.8925806709  IM1       17              0.0000000000
      4760       257  IM1       DC3           -30.2046678889        9.6142546885       17.8973176653  IM1       17              0.0000000000
      4761       257  IM1       H5            -30.1034858457       10.6267534558       18.2291917258  IM1       17              0.0000000000
      4762       257  IM1       C4            -30.0195260035        7.4677747638       17.9093611404  IM1       17              0.0000000000
      4763       257  IM1       DC4           -30.0191088595        7.4662064012       17.9052949379  IM1       17              0.0000000000
      4764       257  IM1       H6            -29.8271752473        6.4351589933       18.2005755925  IM1       17              0.0000000000
      4765       257  IM1       N2            -29.8016062465        8.5445861907       18.6524600512  IM1       17              0.0000000000
      4766       257  IM1       DN2           -29.8026159974        8.5477547481       18.6499259766  IM1       17              0.0000000000
      4767       257  IM1       H7            -29.4324847212        8.5650971900       19.5816148276  IM1       17              0.0000000000
      4768       257  IM1       LPN21         -29.6866823933        8.5479971243       18.9295536699  IM1       17              0.0000000000
      4769       258  IM1       C1             -0.1483645985        2.5710398568       25.4194028891  IM1       18              0.0000000000
      4770       258  IM1       DC1            -0.1510827977        2.5540071531       25.4183770087  IM1       18              0.0000000000
      4771       258  IM1       H1              0.8718399460        2.7994459900       25.0434583111  IM1       18              0.0000000000
      4772       258  IM1       H2             -0.4897507497        1.5863521606       25.0344786901  IM1       18              0.0000000000
      4773       258  IM1       H3             -0.1280636437        2.5860622118       26.5301158137  IM1       18              0.0000000000
      4774       258  IM1       N1             -1.0541768488        3.5857165738       24.9754039598  IM1       18              0.0000000000
      4775       258  IM1       DN1            -1.0615485363        3.5726349954       24.9763063950  IM1       18              0.0000000000
      4776       258  IM1       C2             -0.7435742788        4.6536492407       24.1663092263  IM1       18              0.0000000000
      4777       258  IM1       DC2            -0.7663762377        4.6339766458       24.1702568814  IM1       18              0.0000000000
      4778       258  IM1       H4              0.2576381575        4.7838787774       23.7745147326  IM1       18              0.0000000000
      4779       258  IM1       C3             -1.8642770773        5.4476656829       24.1194165262  IM1       18              0.0000000000
      4780       258  IM1       DC3            -1.8761978013        5.4590075492       24.1096964169  IM1       18              0.0000000000
      4781       258  IM1       H5             -1.9888913065        6.3963761439       23.6121604222  IM1       18              0.0000000000
      4782       258  IM1       C4             -2.3549742490        3.7499887312       25.3429058407  IM1       18              0.0000000000
      4783       258  IM1       DC4            -2.3501741869        3.7453449659       25.3404796569  IM1       18              0.0000000000
      4784       258  IM1       H6             -2.8823360275        3.0236812851       25.9613450441  IM1       18              0.0000000000
      4785       258  IM1       N2             -2.8688634963        4.8668746532       24.8367141785  IM1       18              0.0000000000
      4786       258  IM1       DN2            -2.8694313532        4.8659925087       24.8343666051  IM1       18              0.0000000000
      4787       258  IM1       H7             -3.8092800008        5.1912780895       24.9385925796  IM1       18              0.0000000000
      4788       258  IM1       LPN21          -3.1493618122        4.9658584419       24.8757385856  IM1       18              0.0000000000
      4789       259  IM1       C1            -33.4381007846        6.7778648914       29.2013305082  IM1       19              0.0000000000
      4790       259  IM1       DC1           -33.4317766814        6.7695754951       29.2064005882  IM1       19              0.0000000000
      4791       259  IM1       H1            -33.0942315254        5.9789337823       29.8925497330  IM1       19              0.0000000000
      4792       259  IM1       H2            -34.0000773020        6.3412652554       28.3481692392  IM1       19              0.0000000000
      4793       259  IM1       H3            -34.0664233856        7.5121401863       29.7493920927  IM1       19              0.0000000000
      4794       259  IM1       N1            -32.3331605593        7.4989988762       28.7045491539  IM1       19              0.0000000000
      4795       259  IM1       DN1           -32.3394328964        7.5028222165       28.7025932496  IM1       19              0.0000000000
      4796       259  IM1       C2            -31.0125462090        7.2884524760       29.0151990328  IM1       19              0.0000000000
      4797       259  IM1       DC2           -31.0344674895        7.2812279307       29.0172161994  IM1       19              0.0000000000
      4798       259  IM1       H4            -30.6915076308        6.5032911769       29.6885080017  IM1       19              0.0000000000
      4799       259  IM1       C3            -30.3102247026        8.2543705754       28.3350577897  IM1       19              0.0000000000
      4800       259  IM1       DC3           -30.3169915938        8.2540665391       28.3403271800  IM1       19              0.0000000000
      4801       259  IM1       H5            -29.2385278960        8.4078024290       28.3065337342  IM1       19              0.0000000000
      4802       259  IM1       C4            -32.3838182287        8.5795979058       27.8824235113  IM1       19              0.0000000000
      4803       259  IM1       DC4           -32.3893271223        8.5759379063       27.8924261902  IM1       19              0.0000000000
      4804       259  IM1       H6            -33.3176749955        8.9707885468       27.4787139356  IM1       19              0.0000000000
      4805       259  IM1       N2            -31.1737569588        9.0636755405       27.6555274217  IM1       19              0.0000000000
      4806       259  IM1       DN2           -31.1743726808        9.0630793521       27.6631483961  IM1       19              0.0000000000
      4807       259  IM1       H7            -30.9438501852        9.8408568914       27.0697527011  IM1       19              0.0000000000
      4808       259  IM1       LPN21         -31.1095148599        9.3036490804       27.4873440311  IM1       19              0.0000000000
      4809       260  IM1       C1            -27.2632597033      -25.1857372355       17.5388897061  IM1       20              0.0000000000
      4810       260  IM1       DC1           -27.2727639305      -25.1750909206       17.5480864698  IM1       20              0.0000000000
      4811       260  IM1       H1            -27.3821249471      -24.1703164157       17.9737605076  IM1       20              0.0000000000
      4812       260  IM1       H2            -27.7583768756      -25.2335947457       16.5454665108  IM1       20              0.0000000000
      4813       260  IM1       H3            -26.1834134464      -25.4259340254       17.4361348348  IM1       20              0.0000000000
      4814       260  IM1       N1            -27.8775720750      -26.1535998794       18.3888742356  IM1       20              0.0000000000
      4815       260  IM1       DN1           -27.8833581053      -26.1601941394       18.3865376528  IM1       20              0.0000000000
      4816       260  IM1       C2            -28.5163900627      -25.8893074152       19.5768840157  IM1       20              0.0000000000
      4817       260  IM1       DC2           -28.5254708387      -25.8870089934       19.5609940178  IM1       20              0.0000000000
      4818       260  IM1       H4            -28.5583585834      -24.8895874341       19.9912360457  IM1       20              0.0000000000
      4819       260  IM1       C3            -28.8585656108      -27.1168083928       20.1011325509  IM1       20              0.0000000000
      4820       260  IM1       DC3           -28.8679177760      -27.1296069674       20.0927635590  IM1       20              0.0000000000
      4821       260  IM1       H5            -29.3153274525      -27.3269955682       21.0603400222  IM1       20              0.0000000000
      4822       260  IM1       C4            -27.8939928237      -27.5090784746       18.2283891142  IM1       20              0.0000000000
      4823       260  IM1       DC4           -27.8988356025      -27.5062230179       18.2330480700  IM1       20              0.0000000000
      4824       260  IM1       H6            -27.4121004842      -27.9970752523       17.3811943798  IM1       20              0.0000000000
      4825       260  IM1       N2            -28.4973433618      -28.1186982694       19.2458409155  IM1       20              0.0000000000
      4826       260  IM1       DN2           -28.5028800383      -28.1304003623       19.2473645834  IM1       20              0.0000000000
      4827       260  IM1       H7            -28.5722321768      -29.1042241449       19.3979277793  IM1       20              0.0000000000
      4828       260  IM1       LPN21         -28.5416749991      -28.4139184943       19.2755010705  IM1       20              0.0000000000
      4829       261  IM1       C1             -2.6684913519       24.0083129417       31.2665273418  IM1       21              0.0000000000
      4830       261  IM1       DC1            -2.6613884541       24.0175607196       31.2803569787  IM1       21              0.0000000000
      4831       261  IM1       H1             -1.6562833647       24.3511666614       30.9628707624  IM1       21              0.0000000000
      4832       261  IM1       H2             -3.1643440914       23.5041575040       30.4096269069  IM1       21              0.0000000000
      4833       261  IM1       H3             -2.5841729565       23.3066488093       32.1237780958  IM1       21              0.0000000000
      4834       261  IM1       N1             -3.4695783700       25.1295293445       31.6472390357  IM1       21              0.0000000000
      4835       261  IM1       DN1            -3.4703119003       25.1335043284       31.6588741526  IM1       21              0.0000000000
      4836       261  IM1       C2             -3.0700794107       26.4452643144       31.6218456356  IM1       21              0.0000000000
      4837       261  IM1       DC2            -3.0558687392       26.4325625401       31.6277650951  IM1       21              0.0000000000
      4838       261  IM1       H4             -2.0987139475       26.6846263486       31.2070638212  IM1       21              0.0000000000
      4839       261  IM1       C3             -4.0524093589       27.1741856607       32.2601627772  IM1       21              0.0000000000
      4840       261  IM1       DC3            -4.0324242796       27.1676234440       32.2718360587  IM1       21              0.0000000000
      4841       261  IM1       H5             -4.0994409832       28.2374307047       32.4606297386  IM1       21              0.0000000000
      4842       261  IM1       C4             -4.6589777286       25.1064389975       32.3031658772  IM1       21              0.0000000000
      4843       261  IM1       DC4            -4.6396284409       25.1062342469       32.3096210625  IM1       21              0.0000000000
      4844       261  IM1       H6             -5.2153094697       24.1837867544       32.4684166930  IM1       21              0.0000000000
      4845       261  IM1       N2             -5.0180739823       26.3220393250       32.7023315685  IM1       21              0.0000000000
      4846       261  IM1       DN2            -5.0011705871       26.3189679347       32.7027035520  IM1       21              0.0000000000
      4847       261  IM1       H7             -5.8669852819       26.5679452625       33.1701775638  IM1       21              0.0000000000
      4848       261  IM1       LPN21          -5.2648026544       26.3896761317       32.8590166819  IM1       21              0.0000000000
      4849       262  IM1       C1            -18.2036300261        9.7822528614      -11.3500619515  IM1       22              0.0000000000
      4850       262  IM1       DC1           -18.2029268843        9.7781142995      -11.3383814347  IM1       22              0.0000000000
      4851       262  IM1       H1            -17.2199919356        9.5836887897      -10.8732502301  IM1       22              0.0000000000
      4852       262  IM1       H2            -18.2825471994       10.8519837234      -11.6394906384  IM1       22              0.0000000000
      4853       262  IM1       H3            -18.3151831465        9.1403665621      -12.2499835481  IM1       22              0.0000000000
      4854       262  IM1       N1            -19.2464466576        9.4789319325      -10.4271562347  IM1       22              0.0000000000
      4855       262  IM1       DN1           -19.2517884644        9.4793375644      -10.4282348533  IM1       22              0.0000000000
      4856       262  IM1       C2            -19.1065289683        9.0424695274       -9.1343970798  IM1       22              0.0000000000
      4857       262  IM1       DC2           -19.1106159992        9.0550983880       -9.1455991271  IM1       22              0.0000000000
      4858       262  IM1       H4            -18.1188466865        8.8558608935       -8.7312222691  IM1       22              0.0000000000
      4859       262  IM1       C3            -20.3800007138        8.8635898617       -8.6407780874  IM1       22              0.0000000000
      4860       262  IM1       DC3           -20.3843521707        8.8607842948       -8.6441949713  IM1       22              0.0000000000
      4861       262  IM1       H5            -20.6809362498        8.5135430417       -7.6610873061  IM1       22              0.0000000000
      4862       262  IM1       C4            -20.5784408876        9.5552698982      -10.6613973441  IM1       22              0.0000000000
      4863       262  IM1       DC4           -20.5694974515        9.5534426378      -10.6542116851  IM1       22              0.0000000000
      4864       262  IM1       H6            -20.9441251098        9.8786537366      -11.6359731198  IM1       22              0.0000000000
      4865       262  IM1       N2            -21.2932288915        9.1946613043       -9.5988411376  IM1       22              0.0000000000
      4866       262  IM1       DN2           -21.3002104332        9.1967427718       -9.5960974306  IM1       22              0.0000000000
      4867       262  IM1       H7            -22.2902257192        9.1694113113       -9.5256307221  IM1       22              0.0000000000
      4868       262  IM1       LPN21         -21.5925672648        9.1892473853       -9.5796779499  IM1       22              0.0000000000
      4869       263  IM1       C1              4.8107239209       33.3278479333      -36.6162826338  IM1       23              0.0000000000
      4870       263  IM1       DC1             4.7848235466       33.3201066804      -36.6114592814  IM1       23              0.0000000000
      4871       263  IM1       H1              4.7901522128       32.2911306212      -36.2173903931  IM1       23              0.0000000000
      4872       263  IM1       H2              4.4805770726       33.3386999913      -37.6770400485  IM1       23              0.0000000000
      4873       263  IM1       H3              4.1720731016       33.9942363262      -35.9979197618  IM1       23              0.0000000000
      4874       263  IM1       N1              6.1394432043       33.8010224288      -36.5625346803  IM1       23              0.0000000000
      4875       263  IM1       DN1             6.1139063772       33.8054410167      -36.5614493616  IM1       23              0.0000000000
      4876       263  IM1       C2              7.2666240265       33.1735655787      -36.0930815518  IM1       23              0.0000000000
      4877       263  IM1       DC2             7.2343063247       33.1839792081      -36.0960768061  IM1       23              0.0000000000
      4878       263  IM1       H4              7.2513195107       32.1529259047      -35.7312122002  IM1       23              0.0000000000
      4879       263  IM1       C3              8.2940815573       34.0838520391      -36.2339756297  IM1       23              0.0000000000
      4880       263  IM1       DC3             8.2785366755       34.0880055201      -36.2316902194  IM1       23              0.0000000000
      4881       263  IM1       H5              9.3389989237       33.9715661941      -35.9723870476  IM1       23              0.0000000000
      4882       263  IM1       C4              6.5136295284       35.0372609946      -36.9457152370  IM1       23              0.0000000000
      4883       263  IM1       DC4             6.5072459698       35.0242613778      -36.9384352644  IM1       23              0.0000000000
      4884       263  IM1       H6              5.7628860108       35.7147791078      -37.3524748429  IM1       23              0.0000000000
      4885       263  IM1       N2              7.8033898814       35.2564759834      -36.7441068792  IM1       23              0.0000000000
      4886       263  IM1       DN2             7.8001148804       35.2627002405      -36.7422453419  IM1       23              0.0000000000
      4887       263  IM1       H7              8.3015632238       36.1064588007      -36.9154326836  IM1       23              0.0000000000
      4888       263  IM1       LPN21           7.9500269698       35.5119915355      -36.8007581542  IM1       23              0.0000000000
      4889       264  IM1       C1             -2.0412647978       -6.8953434293       13.5448003421  IM1       24              0.0000000000
      4890       264  IM1       DC1            -2.0331691584       -6.9032030449       13.5514255318  IM1       24              0.0000000000
      4891       264  IM1       H1             -2.7599561203       -7.2963158475       14.2911413528  IM1       24              0.0000000000
      4892       264  IM1       H2             -2.0827318439       -7.4738980002       12.5972371025  IM1       24              0.0000000000
      4893       264  IM1       H3             -2.2862265415       -5.8299717890       13.3465630797  IM1       24              0.0000000000
      4894       264  IM1       N1             -0.7244554426       -6.9982958176       14.0513263966  IM1       24              0.0000000000
      4895       264  IM1       DN1            -0.7181877825       -6.9922873671       14.0425153422  IM1       24              0.0000000000
      4896       264  IM1       C2             -0.3369091010       -7.5992953563       15.2249970261  IM1       24              0.0000000000
      4897       264  IM1       DC2            -0.3429210709       -7.5826739715       15.2064673617  IM1       24              0.0000000000
      4898       264  IM1       H4             -1.0460508214       -8.0746448404       15.8913677100  IM1       24              0.0000000000
      4899       264  IM1       C3              1.0093445925       -7.3392653353       15.3593895777  IM1       24              0.0000000000
      4900       264  IM1       DC3             1.0179774898       -7.3378780003       15.3498617629  IM1       24              0.0000000000
      4901       264  IM1       H5              1.6623049277       -7.6204433495       16.1763783934  IM1       24              0.0000000000
      4902       264  IM1       C4              0.3893639277       -6.4495613868       13.5015287362  IM1       24              0.0000000000
      4903       264  IM1       DC4             0.3840572100       -6.4450993391       13.5014319813  IM1       24              0.0000000000
      4904       264  IM1       H6              0.3723488866       -5.9839230628       12.5161397573  IM1       24              0.0000000000
      4905       264  IM1       N2              1.4534060560       -6.6303430125       14.2748749599  IM1       24              0.0000000000
      4906       264  IM1       DN2             1.4553548947       -6.6324733892       14.2696942047  IM1       24              0.0000000000
      4907       264  IM1       H7              2.3941523516       -6.3626169339       14.0667424203  IM1       24              0.0000000000
      4908       264  IM1       LPN21           1.7313085221       -6.5329941037       14.2174867267  IM1       24              0.0000000000
      4909       265  IM1       C1            -33.4295894519      -26.1985355686       25.3869850431  IM1       25              0.0000000000
      4910       265  IM1       DC1           -33.4465015474      -26.1903224741       25.3848012985  IM1       25              0.0000000000
      4911       265  IM1       H1            -33.8465204589      -25.3278149414       25.9368351369  IM1       25              0.0000000000
      4912       265  IM1       H2            -33.8370796759      -27.1393371224       25.8149630267  IM1       25              0.0000000000
      4913       265  IM1       H3            -33.6716631546      -26.1197895871       24.3055413817  IM1       25              0.0000000000
      4914       265  IM1       N1            -32.0323618971      -26.2000120614       25.5305448347  IM1       25              0.0000000000
      4915       265  IM1       DN1           -32.0440244032      -26.1992875922       25.5226939308  IM1       25              0.0000000000
      4916       265  IM1       C2            -31.3018333208      -25.2768245518       26.2304635893  IM1       25              0.0000000000
      4917       265  IM1       DC2           -31.3366932303      -25.2697952629       26.2249989751  IM1       25              0.0000000000
      4918       265  IM1       H4            -31.7634887170      -24.4776918888       26.7971648175  IM1       25              0.0000000000
      4919       265  IM1       C3            -29.9902685225      -25.6534888228       26.0815671724  IM1       25              0.0000000000
      4920       265  IM1       DC3           -30.0269615585      -25.6391782595       26.0732658429  IM1       25              0.0000000000
      4921       265  IM1       H5            -29.1390676215      -25.1029772603       26.4627273036  IM1       25              0.0000000000
      4922       265  IM1       C4            -31.1542166251      -27.0789570414       24.9846861623  IM1       25              0.0000000000
      4923       265  IM1       DC4           -31.1668493674      -27.0718193216       24.9850718069  IM1       25              0.0000000000
      4924       265  IM1       H6            -31.4759722247      -27.9198640246       24.3703175583  IM1       25              0.0000000000
      4925       265  IM1       N2            -29.9073025552      -26.7764916697       25.3010893052  IM1       25              0.0000000000
      4926       265  IM1       DN2           -29.9173861044      -26.7741613128       25.3005577948  IM1       25              0.0000000000
      4927       265  IM1       H7            -29.0842796990      -27.2784565056       25.0352610119  IM1       25              0.0000000000
      4928       265  IM1       LPN21         -29.6625845373      -26.9275353935       25.2156557921  IM1       25              0.0000000000
      4929       266  IM1       C1             28.3951097503       13.4720606588       31.7083181878  IM1       26              0.0000000000
      4930       266  IM1       DC1            28.4038447293       13.4771435319       31.6966847877  IM1       26              0.0000000000
      4931       266  IM1       H1             29.5029219240       13.4380297657       31.7852277911  IM1       26              0.0000000000
      4932       266  IM1       H2             28.0013717668       14.3510891021       32.2620332736  IM1       26              0.0000000000
      4933       266  IM1       H3             28.1014961419       13.5158070188       30.6377116743  IM1       26              0.0000000000
      4934       266  IM1       N1             27.8556679142       12.2874971466       32.2799095998  IM1       26              0.0000000000
      4935       266  IM1       DN1            27.8527159122       12.3009937058       32.2780362541  IM1       26              0.0000000000
      4936       266  IM1       C2             28.5690323741       11.2420559821       32.8226202624  IM1       26              0.0000000000
      4937       266  IM1       DC2            28.5714076346       11.2686092013       32.8095434462  IM1       26              0.0000000000
      4938       266  IM1       H4             29.6508820746       11.2526120778       32.8713931714  IM1       26              0.0000000000
      4939       266  IM1       C3             27.6367518131       10.3193322917       33.2473674301  IM1       26              0.0000000000
      4940       266  IM1       DC3            27.6492979112       10.3387212146       33.2438409626  IM1       26              0.0000000000
      4941       266  IM1       H5             27.7977824485        9.3632326254       33.7298936599  IM1       26              0.0000000000
      4942       266  IM1       C4             26.5404092951       11.9652126221       32.3936186989  IM1       26              0.0000000000
      4943       266  IM1       DC4            26.5527739490       11.9750082858       32.3915676844  IM1       26              0.0000000000
      4944       266  IM1       H6             25.7388459325       12.6169979097       32.0460958723  IM1       26              0.0000000000
      4945       266  IM1       N2             26.3821024330       10.7879847340       32.9776762967  IM1       26              0.0000000000
      4946       266  IM1       DN2            26.3919844650       10.7972137327       32.9769600384  IM1       26              0.0000000000
      4947       266  IM1       H7             25.5137509046       10.3339385091       33.1771948422  IM1       26              0.0000000000
      4948       266  IM1       LPN21          26.1190597755       10.6561263632       33.0361735649  IM1       26              0.0000000000
      4949       267  IM1       C1            -21.7136888313       -3.9784228563        9.0808617560  IM1       27              0.0000000000
      4950       267  IM1       DC1           -21.7446329462       -4.0063497810        9.0740175708  IM1       27              0.0000000000
      4951       267  IM1       H1            -21.5912020466       -4.8643017708        9.7400556110  IM1       27              0.0000000000
      4952       267  IM1       H2            -21.0099971836       -4.0600657721        8.2250150993  IM1       27              0.0000000000
      4953       267  IM1       H3            -22.7585710581       -3.8923511628        8.7132562665  IM1       27              0.0000000000
      4954       267  IM1       N1            -21.3897159825       -2.8047116973        9.8319812170  IM1       27              0.0000000000
      4955       267  IM1       DN1           -21.4115872580       -2.8091472216        9.7928114988  IM1       27              0.0000000000
      4956       267  IM1       C2            -20.9433548147       -2.7476083433       11.1268848717  IM1       27              0.0000000000
      4957       267  IM1       DC2           -20.9764290420       -2.7653977973       11.0804648236  IM1       27              0.0000000000
      4958       267  IM1       H4            -20.8012210982       -3.6275374774       11.7420366625  IM1       27              0.0000000000
      4959       267  IM1       C3            -20.6984849279       -1.4190764116       11.4088186239  IM1       27              0.0000000000
      4960       267  IM1       DC3           -20.7191602609       -1.4390198808       11.3785823015  IM1       27              0.0000000000
      4961       267  IM1       H5            -20.3161005189       -0.9872911951       12.3254606972  IM1       27              0.0000000000
      4962       267  IM1       C4            -21.4351621387       -1.5188704168        9.3928429860  IM1       27              0.0000000000
      4963       267  IM1       DC4           -21.4424727468       -1.5233113318        9.3717986192  IM1       27              0.0000000000
      4964       267  IM1       H6            -21.7453749413       -1.2555621706        8.3816373754  IM1       27              0.0000000000
      4965       267  IM1       N2            -21.0313707591       -0.6617915036       10.3122947424  IM1       27              0.0000000000
      4966       267  IM1       DN2           -21.0391461567       -0.6637718234       10.2946680947  IM1       27              0.0000000000
      4967       267  IM1       H7            -20.9471731383        0.3300630782       10.2167162445  IM1       27              0.0000000000
      4968       267  IM1       LPN21         -21.0183033318       -0.3638684103       10.2795674938  IM1       27              0.0000000000
      4969       268  IM1       C1            -13.4448188220      -31.3085253969      -14.9291860041  IM1       28              0.0000000000
      4970       268  IM1       DC1           -13.4445659677      -31.3185734355      -14.9104254577  IM1       28              0.0000000000
      4971       268  IM1       H1            -14.1740112357      -31.6611575025      -14.1687584785  IM1       28              0.0000000000
      4972       268  IM1       H2            -13.9890449998      -30.8140084954      -15.7620076553  IM1       28              0.0000000000
      4973       268  IM1       H3            -12.7154051318      -30.6021358803      -14.4783085043  IM1       28              0.0000000000
      4974       268  IM1       N1            -12.7275163112      -32.4142173449      -15.4492855677  IM1       28              0.0000000000
      4975       268  IM1       DN1           -12.7185493495      -32.4040914148      -15.4493057828  IM1       28              0.0000000000
      4976       268  IM1       C2            -12.8796293548      -33.7128324680      -15.0401502577  IM1       28              0.0000000000
      4977       268  IM1       DC2           -12.8818317818      -33.6783676599      -15.0395340467  IM1       28              0.0000000000
      4978       268  IM1       H4            -13.5931713547      -33.9967212050      -14.2765050524  IM1       28              0.0000000000
      4979       268  IM1       C3            -11.9492537661      -34.4471647617      -15.7353749259  IM1       28              0.0000000000
      4980       268  IM1       DC3           -11.9511654538      -34.4355300260      -15.7368121411  IM1       28              0.0000000000
      4981       268  IM1       H5            -11.7668468237      -35.5124146349      -15.6656654210  IM1       28              0.0000000000
      4982       268  IM1       C4            -11.7130206310      -32.4005247615      -16.3573514094  IM1       28              0.0000000000
      4983       268  IM1       DC4           -11.7244455420      -32.4015212291      -16.3596598384  IM1       28              0.0000000000
      4984       268  IM1       H6            -11.3691303844      -31.4855216173      -16.8396466970  IM1       28              0.0000000000
      4985       268  IM1       N2            -11.2296874058      -33.6194944863      -16.5554920676  IM1       28              0.0000000000
      4986       268  IM1       DN2           -11.2307775048      -33.6159875983      -16.5538429980  IM1       28              0.0000000000
      4987       268  IM1       H7            -10.4692967967      -33.8726085913      -17.1536052437  IM1       28              0.0000000000
      4988       268  IM1       LPN21         -11.0074537224      -33.6917347141      -16.7436237753  IM1       28              0.0000000000
      4989       269  IM1       C1              2.4234304750      -10.4700110338       -0.0968486111  IM1       29              0.0000000000
      4990       269  IM1       DC1             2.4322451842      -10.4758488277       -0.0931305598  IM1       29              0.0000000000
      4991       269  IM1       H1              1.8039541988      -10.2152916550       -0.9832391478  IM1       29              0.0000000000
      4992       269  IM1       H2              2.9826277083      -11.4076225523       -0.3030138251  IM1       29              0.0000000000
      4993       269  IM1       H3              3.1014195675       -9.6248029061        0.1486610860  IM1       29              0.0000000000
      4994       269  IM1       N1              1.5612796568      -10.6826236936        0.9956553167  IM1       29              0.0000000000
      4995       269  IM1       DN1             1.5675374570      -10.6819574702        0.9973750445  IM1       29              0.0000000000
      4996       269  IM1       C2              0.1948694539      -10.5377093317        0.9902345689  IM1       29              0.0000000000
      4997       269  IM1       DC2             0.2135630256      -10.5339611315        0.9960283475  IM1       29              0.0000000000
      4998       269  IM1       H4             -0.3547523264      -10.2487296413        0.1029377543  IM1       29              0.0000000000
      4999       269  IM1       C3             -0.2186088772      -10.8585681866        2.2570111072  IM1       29              0.0000000000
      5000       269  IM1       DC3            -0.2255162314      -10.8591298260        2.2633806031  IM1       29              0.0000000000
      5001       269  IM1       H5             -1.2247075778      -10.8599655911        2.6578258423  IM1       29              0.0000000000
      5002       269  IM1       C4              1.9209977130      -11.0827093957        2.2416748094  IM1       29              0.0000000000
      5003       269  IM1       DC4             1.9244993097      -11.0784851413        2.2301712539  IM1       29              0.0000000000
      5004       269  IM1       H6              2.9562803640      -11.2649727887        2.5298932821  IM1       29              0.0000000000
      5005       269  IM1       N2              0.8588005104      -11.2136287024        3.0186467891  IM1       29              0.0000000000
      5006       269  IM1       DN2             0.8539855237      -11.2151244072        3.0122561901  IM1       29              0.0000000000
      5007       269  IM1       H7              0.8594005368      -11.4793698094        3.9826910330  IM1       29              0.0000000000
      5008       269  IM1       LPN21           0.8616808320      -11.3039865625        3.3047012610  IM1       29              0.0000000000
      5009       270  IM1       C1            -32.5990707079      -20.3638532079       12.1509670006  IM1       30              0.0000000000
      5010       270  IM1       DC1           -32.6016282094      -20.3578564538       12.1599729526  IM1       30              0.0000000000
      5011       270  IM1       H1            -32.8368512201      -19.9882590225       13.1691567846  IM1       30              0.0000000000
      5012       270  IM1       H2            -31.7966211529      -21.1302523657       12.2059946533  IM1       30              0.0000000000
      5013       270  IM1       H3            -33.5134041298      -20.7985405743       11.6934057617  IM1       30              0.0000000000
      5014       270  IM1       N1            -32.1459402544      -19.2848427100       11.3287468092  IM1       30              0.0000000000
      5015       270  IM1       DN1           -32.1466921567      -19.2838911359       11.3313560595  IM1       30              0.0000000000
      5016       270  IM1       C2            -32.0472813197      -17.9524286506       11.6818091922  IM1       30              0.0000000000
      5017       270  IM1       DC2           -32.0551583059      -17.9655610627       11.6978819139  IM1       30              0.0000000000
      5018       270  IM1       H4            -32.2722416628      -17.6094131829       12.6841176442  IM1       30              0.0000000000
      5019       270  IM1       C3            -31.6934171635      -17.2776676752       10.5309086811  IM1       30              0.0000000000
      5020       270  IM1       DC3           -31.7048016377      -17.2783166175       10.5488906586  IM1       30              0.0000000000
      5021       270  IM1       H5            -31.5210029262      -16.2176495229       10.3911809147  IM1       30              0.0000000000
      5022       270  IM1       C4            -31.8649193943      -19.3565529960        9.9987965428  IM1       30              0.0000000000
      5023       270  IM1       DC4           -31.8670649744      -19.3577669750       10.0142887615  IM1       30              0.0000000000
      5024       270  IM1       H6            -31.8921230179      -20.2944445188        9.4440718776  IM1       30              0.0000000000
      5025       270  IM1       N2            -31.6056901663      -18.1588836346        9.4922631978  IM1       30              0.0000000000
      5026       270  IM1       DN2           -31.6163108320      -18.1583894965        9.5048308267  IM1       30              0.0000000000
      5027       270  IM1       H7            -31.3629610937      -17.9521120755        8.5444614677  IM1       30              0.0000000000
      5028       270  IM1       LPN21         -31.5412430413      -18.1001491989        9.2052147104  IM1       30              0.0000000000
      5029       271  IM1       C1            -19.9435708209      -29.4491217091       14.7150462120  IM1       31              0.0000000000
      5030       271  IM1       DC1           -19.9445795300      -29.4486758751       14.7133069849  IM1       31              0.0000000000
      5031       271  IM1       H1            -19.4331514953      -28.4625085041       14.7347311523  IM1       31              0.0000000000
      5032       271  IM1       H2            -19.6670510934      -29.9898285586       13.7847269424  IM1       31              0.0000000000
      5033       271  IM1       H3            -19.6522989588      -30.0353532228       15.6127178196  IM1       31              0.0000000000
      5034       271  IM1       N1            -21.3591219683      -29.2578839739       14.7313096489  IM1       31              0.0000000000
      5035       271  IM1       DN1           -21.3629049919      -29.2730668100       14.7294830797  IM1       31              0.0000000000
      5036       271  IM1       C2            -22.0220516940      -28.0533142011       14.7512433752  IM1       31              0.0000000000
      5037       271  IM1       DC2           -22.0201155912      -28.0812655501       14.7561730029  IM1       31              0.0000000000
      5038       271  IM1       H4            -21.4931733481      -27.1082796372       14.7605368308  IM1       31              0.0000000000
      5039       271  IM1       C3            -23.3669846002      -28.3479285752       14.7429091141  IM1       31              0.0000000000
      5040       271  IM1       DC3           -23.3760849827      -28.3598722074       14.7411795347  IM1       31              0.0000000000
      5041       271  IM1       H5            -24.1989495987      -27.6547309117       14.7570597650  IM1       31              0.0000000000
      5042       271  IM1       C4            -22.3182977500      -30.2249569511       14.7144050099  IM1       31              0.0000000000
      5043       271  IM1       DC4           -22.3185630666      -30.2288204548       14.7105336488  IM1       31              0.0000000000
      5044       271  IM1       H6            -22.0689344774      -31.2860206526       14.7065448735  IM1       31              0.0000000000
      5045       271  IM1       N2            -23.5427015942      -29.7057457843       14.7132510363  IM1       31              0.0000000000
      5046       271  IM1       DN2           -23.5482089425      -29.7137179648       14.7100997862  IM1       31              0.0000000000
      5047       271  IM1       H7            -24.4085505778      -30.2060498664       14.7120835772  IM1       31              0.0000000000
      5048       271  IM1       LPN21         -23.7999955485      -29.8599137002       14.7075875775  IM1       31              0.0000000000
      5049       272  IM1       C1            -25.3870176497        9.0140051796       35.4142826185  IM1       32              0.0000000000
      5050       272  IM1       DC1           -25.4022526695        9.0289735858       35.4047543917  IM1       32              0.0000000000
      5051       272  IM1       H1            -26.2482305703        9.5841624381       35.8236162306  IM1       32              0.0000000000
      5052       272  IM1       H2            -24.6050124659        8.9270564832       36.1986478510  IM1       32              0.0000000000
      5053       272  IM1       H3            -25.7132189746        8.0030755565       35.0888060553  IM1       32              0.0000000000
      5054       272  IM1       N1            -24.8334597035        9.7032162889       34.2927015637  IM1       32              0.0000000000
      5055       272  IM1       DN1           -24.8399001928        9.7173396353       34.2848207746  IM1       32              0.0000000000
      5056       272  IM1       C2            -25.2582889680       10.9203573221       33.8026739519  IM1       32              0.0000000000
      5057       272  IM1       DC2           -25.2736735952       10.9264339267       33.8070621220  IM1       32              0.0000000000
      5058       272  IM1       H4            -26.0815018523       11.4540747747       34.2613189432  IM1       32              0.0000000000
      5059       272  IM1       C3            -24.4264476132       11.2092767234       32.7441447217  IM1       32              0.0000000000
      5060       272  IM1       DC3           -24.4349719107       11.2276816995       32.7478461626  IM1       32              0.0000000000
      5061       272  IM1       H5            -24.4274211782       12.0878728461       32.1109331402  IM1       32              0.0000000000
      5062       272  IM1       C4            -23.7804064028        9.3125555197       33.5199658675  IM1       32              0.0000000000
      5063       272  IM1       DC4           -23.7974620231        9.3267174891       33.5248720165  IM1       32              0.0000000000
      5064       272  IM1       H6            -23.2495606382        8.3749110612       33.6846645128  IM1       32              0.0000000000
      5065       272  IM1       N2            -23.5111374525       10.2152054940       32.5810073966  IM1       32              0.0000000000
      5066       272  IM1       DN2           -23.5180643124       10.2290058097       32.5860083343  IM1       32              0.0000000000
      5067       272  IM1       H7            -22.8013737878       10.1519197759       31.8794160198  IM1       32              0.0000000000
      5068       272  IM1       LPN21         -23.2918313379       10.1982352791       32.3770053381  IM1       32              0.0000000000
      5069       273  IM1       C1            -28.0171182509       34.8008970083      -11.7681644523  IM1       33              0.0000000000
      5070       273  IM1       DC1           -28.0263055314       34.7952434588      -11.7616900707  IM1       33              0.0000000000
      5071       273  IM1       H1            -28.5983993911       34.1831692400      -12.4856919021  IM1       33              0.0000000000
      5072       273  IM1       H2            -28.1940373004       35.8759614694      -11.9855513301  IM1       33              0.0000000000
      5073       273  IM1       H3            -28.3200014612       34.5704018142      -10.7243949728  IM1       33              0.0000000000
      5074       273  IM1       N1            -26.6421205829       34.5272923016      -11.9216448830  IM1       33              0.0000000000
      5075       273  IM1       DN1           -26.6464532801       34.5322192471      -11.9079467475  IM1       33              0.0000000000
      5076       273  IM1       C2            -26.0689583632       33.6147549791      -12.7734319262  IM1       33              0.0000000000
      5077       273  IM1       DC2           -26.0907294279       33.6265721054      -12.7577921230  IM1       33              0.0000000000
      5078       273  IM1       H4            -26.6610774804       33.0479683495      -13.4812715039  IM1       33              0.0000000000
      5079       273  IM1       C3            -24.7200077536       33.6228189876      -12.4891183586  IM1       33              0.0000000000
      5080       273  IM1       DC3           -24.7323879076       33.6309246100      -12.4888085457  IM1       33              0.0000000000
      5081       273  IM1       H5            -23.9261122644       33.0479002599      -12.9496478461  IM1       33              0.0000000000
      5082       273  IM1       C4            -25.6476991178       35.0225946178      -11.1502731983  IM1       33              0.0000000000
      5083       273  IM1       DC4           -25.6588605018       35.0229747363      -11.1481359784  IM1       33              0.0000000000
      5084       273  IM1       H6            -25.8368752231       35.7769619718      -10.3865701824  IM1       33              0.0000000000
      5085       273  IM1       N2            -24.4738370986       34.5013631361      -11.4741728143  IM1       33              0.0000000000
      5086       273  IM1       DN2           -24.4788292302       34.5043654281      -11.4718869384  IM1       33              0.0000000000
      5087       273  IM1       H7            -23.5886060490       34.7303295529      -11.0692773108  IM1       33              0.0000000000
      5088       273  IM1       LPN21         -24.2107572482       34.5675998803      -11.3461037470  IM1       33              0.0000000000
      5089       274  IM1       C1             22.9901456204       -2.0651826198      -18.6283316656  IM1       34              0.0000000000
      5090       274  IM1       DC1            22.9975880016       -2.0922098848      -18.6110422122  IM1       34              0.0000000000
      5091       274  IM1       H1             22.3986189603       -1.8906724126      -17.7042302649  IM1       34              0.0000000000
      5092       274  IM1       H2             22.3286509200       -2.4433374247      -19.4368764726  IM1       34              0.0000000000
      5093       274  IM1       H3             23.4691022183       -1.1122276951      -18.9394562235  IM1       34              0.0000000000
      5094       274  IM1       N1             23.9925132757       -3.0295177745      -18.3705211846  IM1       34              0.0000000000
      5095       274  IM1       DN1            24.0027992842       -3.0506621451      -18.3428446109  IM1       34              0.0000000000
      5096       274  IM1       C2             24.1142286618       -3.7936173073      -17.2353520273  IM1       34              0.0000000000
      5097       274  IM1       DC2            24.1030635921       -3.8137896290      -17.2180355200  IM1       34              0.0000000000
      5098       274  IM1       H4             23.5035336240       -3.5897773387      -16.3644962195  IM1       34              0.0000000000
      5099       274  IM1       C3             25.1923332755       -4.6252295701      -17.4499014317  IM1       34              0.0000000000
      5100       274  IM1       DC3            25.1923764977       -4.6468853236      -17.4295376173  IM1       34              0.0000000000
      5101       274  IM1       H5             25.6370265830       -5.3435524476      -16.7722960111  IM1       34              0.0000000000
      5102       274  IM1       C4             24.9705218704       -3.4350900429      -19.2191781692  IM1       34              0.0000000000
      5103       274  IM1       DC4            24.9603968176       -3.4411574405      -19.1974046025  IM1       34              0.0000000000
      5104       274  IM1       H6             25.0558137073       -3.0348291812      -20.2294338523  IM1       34              0.0000000000
      5105       274  IM1       N2             25.7124565025       -4.3999610312      -18.6754328088  IM1       34              0.0000000000
      5106       274  IM1       DN2            25.7067053514       -4.4060627757      -18.6555801189  IM1       34              0.0000000000
      5107       274  IM1       H7             26.4631847432       -4.8911024358      -19.1172327968  IM1       34              0.0000000000
      5108       274  IM1       LPN21          25.9470500762       -4.5374137728      -18.8022105632  IM1       34              0.0000000000
      5109       275  IM1       C1             -3.5430938521      -29.8853661895        4.4981604963  IM1       35              0.0000000000
      5110       275  IM1       DC1            -3.5449890523      -29.8899793943        4.4928360204  IM1       35              0.0000000000
      5111       275  IM1       H1             -2.6921220739      -30.4455046143        4.9413455340  IM1       35              0.0000000000
      5112       275  IM1       H2             -3.9393789236      -29.1595923136        5.2401385452  IM1       35              0.0000000000
      5113       275  IM1       H3             -3.2115672946      -29.3530779571        3.5810561511  IM1       35              0.0000000000
      5114       275  IM1       N1             -4.5821586574      -30.7853401984        4.1223074509  IM1       35              0.0000000000
      5115       275  IM1       DN1            -4.5875075463      -30.7883128016        4.1178954844  IM1       35              0.0000000000
      5116       275  IM1       C2             -4.6393483441      -32.1328376642        4.3864980588  IM1       35              0.0000000000
      5117       275  IM1       DC2            -4.6466900217      -32.1226115992        4.3843921360  IM1       35              0.0000000000
      5118       275  IM1       H4             -3.8120688219      -32.6584977680        4.8471270282  IM1       35              0.0000000000
      5119       275  IM1       C3             -5.8600784294      -32.5672652483        3.9144508248  IM1       35              0.0000000000
      5120       275  IM1       DC3            -5.8763545080      -32.5628602160        3.9168199667  IM1       35              0.0000000000
      5121       275  IM1       H5             -6.2636720765      -33.5720138763        3.9363907968  IM1       35              0.0000000000
      5122       275  IM1       C4             -5.7530582406      -30.4661196122        3.5054936611  IM1       35              0.0000000000
      5123       275  IM1       DC4            -5.7495177198      -30.4728951523        3.5080373067  IM1       35              0.0000000000
      5124       275  IM1       H6             -5.9818865057      -29.4471251697        3.1934232344  IM1       35              0.0000000000
      5125       275  IM1       N2             -6.5466620686      -31.5243591193        3.3641493744  IM1       35              0.0000000000
      5126       275  IM1       DN2            -6.5581573684      -31.5255424856        3.3656926411  IM1       35              0.0000000000
      5127       275  IM1       H7             -7.4589164813      -31.5402675599        2.9548343268  IM1       35              0.0000000000
      5128       275  IM1       LPN21          -6.8184384064      -31.5271231479        3.2371455067  IM1       35              0.0000000000
      5129       276  IM1       C1            -19.1568050018      -26.7514813169      -22.3722120882  IM1       36              0.0000000000
      5130       276  IM1       DC1           -19.1432144772      -26.7424138006      -22.3768805492  IM1       36              0.0000000000
      5131       276  IM1       H1            -19.0617869070      -25.6637277269      -22.5773576210  IM1       36              0.0000000000
      5132       276  IM1       H2            -18.6997393514      -27.3192674298      -23.2106814801  IM1       36              0.0000000000
      5133       276  IM1       H3            -18.6723774382      -26.9996919992      -21.4036862011  IM1       36              0.0000000000
      5134       276  IM1       N1            -20.5335072908      -27.0995338600      -22.2967618779  IM1       36              0.0000000000
      5135       276  IM1       DN1           -20.5190265166      -27.1077880319      -22.2903671045  IM1       36              0.0000000000
      5136       276  IM1       C2            -21.5986469499      -26.2529717128      -22.4909262494  IM1       36              0.0000000000
      5137       276  IM1       DC2           -21.5638201120      -26.2495208971      -22.4887232764  IM1       36              0.0000000000
      5138       276  IM1       H4            -21.4778716396      -25.1927896182      -22.6761727088  IM1       36              0.0000000000
      5139       276  IM1       C3            -22.7276031853      -27.0172870469      -22.2900520811  IM1       36              0.0000000000
      5140       276  IM1       DC3           -22.7071663531      -27.0143154516      -22.2963851038  IM1       36              0.0000000000
      5141       276  IM1       H5            -23.7591657412      -26.6877328928      -22.3027702847  IM1       36              0.0000000000
      5142       276  IM1       C4            -21.0505880853      -28.3228859849      -21.9956980065  IM1       36              0.0000000000
      5143       276  IM1       DC4           -21.0386892522      -28.3188695255      -21.9922254492  IM1       36              0.0000000000
      5144       276  IM1       H6            -20.4233052041      -29.1872778914      -21.7778842791  IM1       36              0.0000000000
      5145       276  IM1       N2            -22.3744569639      -28.3035001037      -21.9833416292  IM1       36              0.0000000000
      5146       276  IM1       DN2           -22.3668715339      -28.3016018455      -21.9809749360  IM1       36              0.0000000000
      5147       276  IM1       H7            -22.9859477423      -29.0591641129      -21.7487122764  IM1       36              0.0000000000
      5148       276  IM1       LPN21         -22.5533432034      -28.5370382532      -21.9245228733  IM1       36              0.0000000000
      5149       277  IM1       C1             19.8801941873      -33.5433852114        7.7244694079  IM1       37              0.0000000000
      5150       277  IM1       DC1            19.8902184471      -33.5315308508        7.7207232345  IM1       37              0.0000000000
      5151       277  IM1       H1             20.5234109493      -32.6456954043        7.8459033709  IM1       37              0.0000000000
      5152       277  IM1       H2             19.9933988254      -33.9674631493        6.7038501772  IM1       37              0.0000000000
      5153       277  IM1       H3             20.1435908002      -34.3042798011        8.4899644427  IM1       37              0.0000000000
      5154       277  IM1       N1             18.5237394309      -33.1652931506        7.9018225164  IM1       37              0.0000000000
      5155       277  IM1       DN1            18.5286469102      -33.1609123383        7.9044254812  IM1       37              0.0000000000
      5156       277  IM1       C2             18.0428140392      -31.8998358116        8.1522999351  IM1       37              0.0000000000
      5157       277  IM1       DC2            18.0441887273      -31.9088939152        8.1545619384  IM1       37              0.0000000000
      5158       277  IM1       H4             18.6967408919      -31.0451952394        8.2741940031  IM1       37              0.0000000000
      5159       277  IM1       C3             16.6746850622      -32.0191051675        8.1882219648  IM1       37              0.0000000000
      5160       277  IM1       DC3            16.6596144941      -32.0101717045        8.1873157535  IM1       37              0.0000000000
      5161       277  IM1       H5             15.9243192686      -31.2730038704        8.4188147476  IM1       37              0.0000000000
      5162       277  IM1       C4             17.4417278688      -33.9746842233        7.7856677833  IM1       37              0.0000000000
      5163       277  IM1       DC4            17.4536157713      -33.9576319559        7.7769647986  IM1       37              0.0000000000
      5164       277  IM1       H6             17.5284057966      -35.0542194426        7.6624174399  IM1       37              0.0000000000
      5165       277  IM1       N2             16.3076271066      -33.2916694769        7.9179904246  IM1       37              0.0000000000
      5166       277  IM1       DN2            16.3061497015      -33.2788816695        7.9118302616  IM1       37              0.0000000000
      5167       277  IM1       H7             15.3916419875      -33.6878964216        7.9810417510  IM1       37              0.0000000000
      5168       277  IM1       LPN21          16.0294244580      -33.4009831637        7.8924208301  IM1       37              0.0000000000
      5169       278  IM1       C1             35.9360519339      -29.8828242958       23.8088456535  IM1       38              0.0000000000
      5170       278  IM1       DC1            35.9529331378      -29.8932083916       23.8208609291  IM1       38              0.0000000000
      5171       278  IM1       H1             36.6472253597      -30.5632007616       23.2934417112  IM1       38              0.0000000000
      5172       278  IM1       H2             36.4644589314      -29.0908826645       24.3815021802  IM1       38              0.0000000000
      5173       278  IM1       H3             35.2976324320      -29.4089007594       23.0328701237  IM1       38              0.0000000000
      5174       278  IM1       N1             35.1159683410      -30.6430120786       24.7052692682  IM1       38              0.0000000000
      5175       278  IM1       DN1            35.1115595925      -30.6428405144       24.7134626660  IM1       38              0.0000000000
      5176       278  IM1       C2             35.2251865445      -31.9834659130       25.0007754206  IM1       38              0.0000000000
      5177       278  IM1       DC2            35.2317906779      -31.9721536112       24.9941171320  IM1       38              0.0000000000
      5178       278  IM1       H4             35.9654179689      -32.6136662515       24.5234977534  IM1       38              0.0000000000
      5179       278  IM1       C3             34.2118603370      -32.2786992528       25.8853763238  IM1       38              0.0000000000
      5180       278  IM1       DC3            34.2122401769      -32.2725764784       25.8828004439  IM1       38              0.0000000000
      5181       278  IM1       H5             33.9878333916      -33.2299747939       26.3520408421  IM1       38              0.0000000000
      5182       278  IM1       C4             34.0359703832      -30.1906868692       25.3990538468  IM1       38              0.0000000000
      5183       278  IM1       DC4            34.0402780488      -30.1947477558       25.4018381038  IM1       38              0.0000000000
      5184       278  IM1       H6             33.6967306819      -29.1581419465       25.3161840234  IM1       38              0.0000000000
      5185       278  IM1       N2             33.4750211876      -31.1525228940       26.1245417124  IM1       38              0.0000000000
      5186       278  IM1       DN2            33.4737469811      -31.1495298774       26.1289530213  IM1       38              0.0000000000
      5187       278  IM1       H7             32.6525979553      -31.0776429532       26.6884681452  IM1       38              0.0000000000
      5188       278  IM1       LPN21          33.2354805571      -31.1221393000       26.3025785725  IM1       38              0.0000000000
      5189       279  IM1       C1              9.1911573247       32.2638537194       12.2206260616  IM1       39              0.0000000000
      5190       279  IM1       DC1             9.1971318130       32.2632593118       12.2232001539  IM1       39              0.0000000000
      5191       279  IM1       H1              9.6729368094       33.2552033186       12.0812147910  IM1       39              0.0000000000
      5192       279  IM1       H2              9.7306502400       31.4862121778       11.6387824161  IM1       39              0.0000000000
      5193       279  IM1       H3              9.1962027867       31.9981312777       13.2993693709  IM1       39              0.0000000000
      5194       279  IM1       N1              7.8423722459       32.3261396586       11.7547573325  IM1       39              0.0000000000
      5195       279  IM1       DN1             7.8465464162       32.3150218438       11.7549110487  IM1       39              0.0000000000
      5196       279  IM1       C2              7.2253845296       33.4094081315       11.1675752728  IM1       39              0.0000000000
      5197       279  IM1       DC2             7.2304033431       33.3805142699       11.1609402233  IM1       39              0.0000000000
      5198       279  IM1       H4              7.7353256300       34.3574020270       11.0485935593  IM1       39              0.0000000000
      5199       279  IM1       C3              5.9263072354       33.0245172058       10.9222926690  IM1       39              0.0000000000
      5200       279  IM1       DC3             5.9203092003       33.0193466749       10.9152867959  IM1       39              0.0000000000
      5201       279  IM1       H5              5.1301509259       33.5988969856       10.4650050139  IM1       39              0.0000000000
      5202       279  IM1       C4              6.9157620140       31.3296011944       11.8024610640  IM1       39              0.0000000000
      5203       279  IM1       DC4             6.9225271840       31.3337333724       11.8052973029  IM1       39              0.0000000000
      5204       279  IM1       H6              7.1432415931       30.3412520005       12.2018592539  IM1       39              0.0000000000
      5205       279  IM1       N2              5.7493680048       31.7231006785       11.3019921420  IM1       39              0.0000000000
      5206       279  IM1       DN2             5.7484296538       31.7235664726       11.3015668541  IM1       39              0.0000000000
      5207       279  IM1       H7              4.9234076486       31.1674479661       11.2069155774  IM1       39              0.0000000000
      5208       279  IM1       LPN21           5.5015256193       31.5555341711       11.2797296725  IM1       39              0.0000000000
      5209       280  IM1       C1             26.1440252754       29.4038268158      -20.8700325069  IM1       40              0.0000000000
      5210       280  IM1       DC1            26.1492993984       29.4080384239      -20.8658293225  IM1       40              0.0000000000
      5211       280  IM1       H1             26.9068630685       28.6890213315      -20.4939306294  IM1       40              0.0000000000
      5212       280  IM1       H2             26.4047996516       30.4323640102      -20.5407469699  IM1       40              0.0000000000
      5213       280  IM1       H3             26.1144887983       29.3818591953      -21.9804225375  IM1       40              0.0000000000
      5214       280  IM1       N1             24.8513016390       29.0430245876      -20.3608496397  IM1       40              0.0000000000
      5215       280  IM1       DN1            24.8476095712       29.0581816780      -20.3720600839  IM1       40              0.0000000000
      5216       280  IM1       C2             24.5720961564       27.9913870692      -19.5204649848  IM1       40              0.0000000000
      5217       280  IM1       DC2            24.5839350330       28.0151369770      -19.5350785134  IM1       40              0.0000000000
      5218       280  IM1       H4             25.3359733750       27.2837730655      -19.2227016282  IM1       40              0.0000000000
      5219       280  IM1       C3             23.2385588297       28.1057409400      -19.1813574315  IM1       40              0.0000000000
      5220       280  IM1       DC3            23.2356769564       28.1248592443      -19.1906347149  IM1       40              0.0000000000
      5221       280  IM1       H5             22.6431809870       27.4719563609      -18.5358101197  IM1       40              0.0000000000
      5222       280  IM1       C4             23.6888717791       29.7416804377      -20.4965995070  IM1       40              0.0000000000
      5223       280  IM1       DC4            23.6912801437       29.7506428710      -20.4982192842  IM1       40              0.0000000000
      5224       280  IM1       H6             23.6181373805       30.6321987875      -21.1211583221  IM1       40              0.0000000000
      5225       280  IM1       N2             22.7002000413       29.2077371619      -19.7880226068  IM1       40              0.0000000000
      5226       280  IM1       DN2            22.6934887755       29.2188363282      -19.7882525430  IM1       40              0.0000000000
      5227       280  IM1       H7             21.7532178417       29.5245770315      -19.7347571325  IM1       40              0.0000000000
      5228       280  IM1       LPN21          22.4195857456       29.3121692488      -19.7693261822  IM1       40              0.0000000000
      5229       281  IM1       C1            -24.8653952523       -2.1371338674      -14.2878391791  IM1       41              0.0000000000
      5230       281  IM1       DC1           -24.8823826721       -2.1503739000      -14.2878356449  IM1       41              0.0000000000
      5231       281  IM1       H1            -24.4589273534       -2.8971643654      -14.9888801836  IM1       41              0.0000000000
      5232       281  IM1       H2            -24.6436571642       -2.4313179335      -13.2396936952  IM1       41              0.0000000000
      5233       281  IM1       H3            -24.4092806736       -1.1486949472      -14.5098053793  IM1       41              0.0000000000
      5234       281  IM1       N1            -26.2775084774       -2.0257180492      -14.4515535668  IM1       41              0.0000000000
      5235       281  IM1       DN1           -26.2900044179       -2.0265221018      -14.4496407842  IM1       41              0.0000000000
      5236       281  IM1       C2            -27.0608120230       -2.7499003503      -15.3221419105  IM1       41              0.0000000000
      5237       281  IM1       DC2           -27.0543339503       -2.7468587792      -15.3164006655  IM1       41              0.0000000000
      5238       281  IM1       H4            -26.6270980069       -3.4631261611      -16.0121347346  IM1       41              0.0000000000
      5239       281  IM1       C3            -28.3523769383       -2.3109717626      -15.1234666402  IM1       41              0.0000000000
      5240       281  IM1       DC3           -28.3566365374       -2.3131278770      -15.1197360281  IM1       41              0.0000000000
      5241       281  IM1       H5            -29.2612321989       -2.6304043493      -15.6182736105  IM1       41              0.0000000000
      5242       281  IM1       C4            -27.1153718909       -1.1900040880      -13.7769956202  IM1       41              0.0000000000
      5243       281  IM1       DC4           -27.1144527813       -1.2018435160      -13.7706474295  IM1       41              0.0000000000
      5244       281  IM1       H6            -26.7542886449       -0.4805578321      -13.0324119114  IM1       41              0.0000000000
      5245       281  IM1       N2            -28.3795663786       -1.3572770098      -14.1501697437  IM1       41              0.0000000000
      5246       281  IM1       DN2           -28.3838217335       -1.3615636539      -14.1475326362  IM1       41              0.0000000000
      5247       281  IM1       H7            -29.1754440914       -0.8496369118      -13.8201997492  IM1       41              0.0000000000
      5248       281  IM1       LPN21         -28.6176895769       -1.2122199281      -14.0394638924  IM1       41              0.0000000000
      5249       282  IM1       C1             16.4171562012      -35.1137110512      -28.6190308991  IM1       42              0.0000000000
      5250       282  IM1       DC1            16.4217879955      -35.1037235964      -28.6177351165  IM1       42              0.0000000000
      5251       282  IM1       H1             16.7387958402      -34.1365818694      -29.0386587167  IM1       42              0.0000000000
      5252       282  IM1       H2             17.1545698458      -35.9034475192      -28.8776008660  IM1       42              0.0000000000
      5253       282  IM1       H3             16.2890933713      -35.0452325736      -27.5175629644  IM1       42              0.0000000000
      5254       282  IM1       N1             15.1681796638      -35.4571020069      -29.1771862196  IM1       42              0.0000000000
      5255       282  IM1       DN1            15.1746592368      -35.4586239923      -29.1738665873  IM1       42              0.0000000000
      5256       282  IM1       C2             14.4043603891      -34.7051835219      -30.0441065244  IM1       42              0.0000000000
      5257       282  IM1       DC2            14.4246494531      -34.7066639578      -30.0371304704  IM1       42              0.0000000000
      5258       282  IM1       H4             14.7424011804      -33.7556439223      -30.4403286492  IM1       42              0.0000000000
      5259       282  IM1       C3             13.2593249276      -35.4333464997      -30.2717968902  IM1       42              0.0000000000
      5260       282  IM1       DC3            13.2687216126      -35.4281477305      -30.2742683110  IM1       42              0.0000000000
      5261       282  IM1       H5             12.4196831415      -35.2293771959      -30.9247036172  IM1       42              0.0000000000
      5262       282  IM1       C4             14.4706973188      -36.5848952473      -28.9131028263  IM1       42              0.0000000000
      5263       282  IM1       DC4            14.4799140461      -36.5714386077      -28.9128118451  IM1       42              0.0000000000
      5264       282  IM1       H6             14.8305834527      -37.3737722580      -28.2526067758  IM1       42              0.0000000000
      5265       282  IM1       N2             13.3230988025      -36.5807815595      -29.5661674152  IM1       42              0.0000000000
      5266       282  IM1       DN2            13.3246425501      -36.5716234408      -29.5660437401  IM1       42              0.0000000000
      5267       282  IM1       H7             12.6512784231      -37.3214784352      -29.5611160582  IM1       42              0.0000000000
      5268       282  IM1       LPN21          13.1168524183      -36.7984089516      -29.5561301237  IM1       42              0.0000000000
      5269       283  IM1       C1            -10.3612041655        6.2976479094      -17.4302311127  IM1       43              0.0000000000
      5270       283  IM1       DC1           -10.3690194160        6.2776160299      -17.4243420651  IM1       43              0.0000000000
      5271       283  IM1       H1            -11.1001194536        5.4680174237      -17.4364322610  IM1       43              0.0000000000
      5272       283  IM1       H2            -10.4657093387        6.8747495773      -18.3738164744  IM1       43              0.0000000000
      5273       283  IM1       H3            -10.5165578178        6.9640997338      -16.5550007380  IM1       43              0.0000000000
      5274       283  IM1       N1             -9.0450316047        5.7614833074      -17.3658467589  IM1       43              0.0000000000
      5275       283  IM1       DN1            -9.0381890998        5.7559572620      -17.3619468937  IM1       43              0.0000000000
      5276       283  IM1       C2             -8.7231941095        4.4271126219      -17.4393305965  IM1       43              0.0000000000
      5277       283  IM1       DC2            -8.7264187092        4.4317223189      -17.4392263862  IM1       43              0.0000000000
      5278       283  IM1       H4             -9.4979817165        3.6750447533      -17.5229193813  IM1       43              0.0000000000
      5279       283  IM1       C3             -7.3494626532        4.3583858336      -17.3695383764  IM1       43              0.0000000000
      5280       283  IM1       DC3            -7.3416747249        4.3538351798      -17.3771035816  IM1       43              0.0000000000
      5281       283  IM1       H5             -6.7237766979        3.4744147701      -17.3706538372  IM1       43              0.0000000000
      5282       283  IM1       C4             -7.8699496202        6.4407806372      -17.2667212267  IM1       43              0.0000000000
      5283       283  IM1       DC4            -7.8670065006        6.4261709268      -17.2682179930  IM1       43              0.0000000000
      5284       283  IM1       H6             -7.8315944463        7.5271413262      -17.1864134817  IM1       43              0.0000000000
      5285       283  IM1       N2             -6.8240408546        5.6177761091      -17.2880185395  IM1       43              0.0000000000
      5286       283  IM1       DN2            -6.8137315666        5.6171165936      -17.2923521775  IM1       43              0.0000000000
      5287       283  IM1       H7             -5.8595987935        5.8707201486      -17.2113972399  IM1       43              0.0000000000
      5288       283  IM1       LPN21          -6.5351919570        5.6980487394      -17.2769451869  IM1       43              0.0000000000
      5289       284  IM1       C1             36.3415384974       34.7016357431       36.0034320353  IM1       44              0.0000000000
      5290       284  IM1       DC1            36.3570152898       34.7008975932       36.0060982377  IM1       44              0.0000000000
      5291       284  IM1       H1             36.9852050856       33.8062406504       35.8682212743  IM1       44              0.0000000000
      5292       284  IM1       H2             35.9175393970       34.7080107221       37.0303230337  IM1       44              0.0000000000
      5293       284  IM1       H3             36.9297701762       35.6258878554       35.8188716797  IM1       44              0.0000000000
      5294       284  IM1       N1             35.2645431587       34.6549983467       35.0682503112  IM1       44              0.0000000000
      5295       284  IM1       DN1            35.2719245741       34.6666626826       35.0789020219  IM1       44              0.0000000000
      5296       284  IM1       C2             35.0260907601       33.6741105040       34.1321627232  IM1       44              0.0000000000
      5297       284  IM1       DC2            35.0438855440       33.6920139086       34.1504663819  IM1       44              0.0000000000
      5298       284  IM1       H4             35.6561585150       32.7980349031       34.0405375850  IM1       44              0.0000000000
      5299       284  IM1       C3             33.8784025788       34.0491739745       33.4638687878  IM1       44              0.0000000000
      5300       284  IM1       DC3            33.8910373017       34.0546078357       33.4671412374  IM1       44              0.0000000000
      5301       284  IM1       H5             33.3615054190       33.5314915798       32.6653005287  IM1       44              0.0000000000
      5302       284  IM1       C4             34.2762846216       35.5784210971       34.9231485402  IM1       44              0.0000000000
      5303       284  IM1       DC4            34.2878202708       35.5769115617       34.9272131180  IM1       44              0.0000000000
      5304       284  IM1       H6             34.2122106901       36.4688588773       35.5485404918  IM1       44              0.0000000000
      5305       284  IM1       N2             33.4334582149       35.2453621940       33.9542466696  IM1       44              0.0000000000
      5306       284  IM1       DN2            33.4405953652       35.2461736343       33.9548377362  IM1       44              0.0000000000
      5307       284  IM1       H7             32.6173512140       35.7505245944       33.6735683590  IM1       44              0.0000000000
      5308       284  IM1       LPN21          33.1953526617       35.4049963502       33.8658007443  IM1       44              0.0000000000
      5309       285  IM1       C1            -36.5200900642      -13.6398483829      -14.5316413393  IM1       45              0.0000000000
      5310       285  IM1       DC1           -36.5394704339      -13.6388243895      -14.5058275315  IM1       45              0.0000000000
      5311       285  IM1       H1            -37.4769613626      -13.9075312695      -14.0345858187  IM1       45              0.0000000000
      5312       285  IM1       H2            -36.6910633579      -12.8335696901      -15.2766271137  IM1       45              0.0000000000
      5313       285  IM1       H3            -35.7630576502      -13.3122229661      -13.7874071618  IM1       45              0.0000000000
      5314       285  IM1       N1            -36.0084913054      -14.7780960415      -15.2176204545  IM1       45              0.0000000000
      5315       285  IM1       DN1           -36.0170621589      -14.7672537974      -15.2055633645  IM1       45              0.0000000000
      5316       285  IM1       C2            -36.5831347976      -16.0290953290      -15.2882858673  IM1       45              0.0000000000
      5317       285  IM1       DC2           -36.6004128491      -16.0075088900      -15.2642818282  IM1       45              0.0000000000
      5318       285  IM1       H4            -37.5276414867      -16.2599087373      -14.8112939546  IM1       45              0.0000000000
      5319       285  IM1       C3            -35.7378187144      -16.7922944478      -16.0671420308  IM1       45              0.0000000000
      5320       285  IM1       DC3           -35.7573082327      -16.7811404583      -16.0541101222  IM1       45              0.0000000000
      5321       285  IM1       H5            -35.8373893885      -17.8292790542      -16.3631785279  IM1       45              0.0000000000
      5322       285  IM1       C4            -34.8577892614      -14.8347787855      -15.9363378313  IM1       45              0.0000000000
      5323       285  IM1       DC4           -34.8802418697      -14.8351400166      -15.9213910175  IM1       45              0.0000000000
      5324       285  IM1       H6            -34.1951888468      -13.9758758064      -16.0428571448  IM1       45              0.0000000000
      5325       285  IM1       N2            -34.6726539831      -16.0391978459      -16.4611734565  IM1       45              0.0000000000
      5326       285  IM1       DN2           -34.6864343448      -16.0403063844      -16.4523974877  IM1       45              0.0000000000
      5327       285  IM1       H7            -33.9100866926      -16.3222509026      -17.0428710537  IM1       45              0.0000000000
      5328       285  IM1       LPN21         -34.4405147630      -16.1229380239      -16.6317576442  IM1       45              0.0000000000
      5329       286  IM1       C1            -20.1185612161       29.9451798099       21.4945910488  IM1       46              0.0000000000
      5330       286  IM1       DC1           -20.1158051392       29.9335523575       21.4975856225  IM1       46              0.0000000000
      5331       286  IM1       H1            -19.0839026854       30.2956390471       21.6970288144  IM1       46              0.0000000000
      5332       286  IM1       H2            -20.8148661410       30.8069952880       21.4124050819  IM1       46              0.0000000000
      5333       286  IM1       H3            -20.1332391550       29.3651023082       20.5471652457  IM1       46              0.0000000000
      5334       286  IM1       N1            -20.5534773322       29.1540398335       22.5667319473  IM1       46              0.0000000000
      5335       286  IM1       DN1           -20.5596248293       29.1521821566       22.5621562873  IM1       46              0.0000000000
      5336       286  IM1       C2            -19.8104431049       28.7376686038       23.6440812576  IM1       46              0.0000000000
      5337       286  IM1       DC2           -19.8102492124       28.7426052084       23.6196590293  IM1       46              0.0000000000
      5338       286  IM1       H4            -18.7963132917       29.0857303387       23.7966681206  IM1       46              0.0000000000
      5339       286  IM1       C3            -20.6543629462       27.9683683334       24.4139531196  IM1       46              0.0000000000
      5340       286  IM1       DC3           -20.6484906678       27.9686238044       24.4026298867  IM1       46              0.0000000000
      5341       286  IM1       H5            -20.4598025755       27.4783273935       25.3599420938  IM1       46              0.0000000000
      5342       286  IM1       C4            -21.7903549301       28.6308593338       22.7110609057  IM1       46              0.0000000000
      5343       286  IM1       DC4           -21.7803838863       28.6340019521       22.7034695172  IM1       46              0.0000000000
      5344       286  IM1       H6            -22.5762499840       28.7766778054       21.9699766071  IM1       46              0.0000000000
      5345       286  IM1       N2            -21.8710392860       27.8903218729       23.8077445873  IM1       46              0.0000000000
      5346       286  IM1       DN2           -21.8654395277       27.8938965320       23.8057948188  IM1       46              0.0000000000
      5347       286  IM1       H7            -22.6750709955       27.3810815813       24.1146767223  IM1       46              0.0000000000
      5348       286  IM1       LPN21         -22.1127312169       27.7378572929       23.8990657917  IM1       46              0.0000000000
      5349       287  IM1       C1            -30.3393909693       -0.9188032249      -32.9010690388  IM1       47              0.0000000000
      5350       287  IM1       DC1           -30.3579157393       -0.9135118357      -32.9057203298  IM1       47              0.0000000000
      5351       287  IM1       H1            -30.9983724538       -1.8091847153      -32.9864224599  IM1       47              0.0000000000
      5352       287  IM1       H2            -29.6574266059       -1.0477026563      -32.0335262193  IM1       47              0.0000000000
      5353       287  IM1       H3            -29.7466242694       -0.7947306443      -33.8324951683  IM1       47              0.0000000000
      5354       287  IM1       N1            -31.1258684645        0.2552538383      -32.6978377362  IM1       47              0.0000000000
      5355       287  IM1       DN1           -31.1390971297        0.2626146462      -32.6950552651  IM1       47              0.0000000000
      5356       287  IM1       C2            -32.4953443997        0.3078820897      -32.5493763543  IM1       47              0.0000000000
      5357       287  IM1       DC2           -32.5016429100        0.2908641171      -32.5479202760  IM1       47              0.0000000000
      5358       287  IM1       H4            -33.1090784482       -0.5729689110      -32.6919282126  IM1       47              0.0000000000
      5359       287  IM1       C3            -32.8010236428        1.6317827401      -32.3085189700  IM1       47              0.0000000000
      5360       287  IM1       DC3           -32.8068435970        1.6247267810      -32.3109026169  IM1       47              0.0000000000
      5361       287  IM1       H5            -33.7760691713        2.0896713113      -32.1966562258  IM1       47              0.0000000000
      5362       287  IM1       C4            -30.6664421036        1.5286660102      -32.5489349243  IM1       47              0.0000000000
      5363       287  IM1       DC4           -30.6746227644        1.5184266055      -32.5478953548  IM1       47              0.0000000000
      5364       287  IM1       H6            -29.6093868540        1.7807865268      -32.6336074953  IM1       47              0.0000000000
      5365       287  IM1       N2            -31.6602180896        2.3796088162      -32.3142209507  IM1       47              0.0000000000
      5366       287  IM1       DN2           -31.6679056939        2.3750497881      -32.3146293285  IM1       47              0.0000000000
      5367       287  IM1       H7            -31.5857408892        3.3722358106      -32.2185925209  IM1       47              0.0000000000
      5368       287  IM1       LPN21         -31.6329681847        2.6753507545      -32.2718635596  IM1       47              0.0000000000
      5369       288  IM1       C1            -17.2372348941       32.3134402855      -36.2567815003  IM1       48              0.0000000000
      5370       288  IM1       DC1           -17.2234028947       32.3004657186      -36.2575434026  IM1       48              0.0000000000
      5371       288  IM1       H1            -17.9140532958       31.6706803578      -35.6542057553  IM1       48              0.0000000000
      5372       288  IM1       H2            -17.6068013882       32.3626239594      -37.3033580977  IM1       48              0.0000000000
      5373       288  IM1       H3            -17.2041671108       33.3312704772      -35.8126540158  IM1       48              0.0000000000
      5374       288  IM1       N1            -15.9206454632       31.7603007993      -36.2559522383  IM1       48              0.0000000000
      5375       288  IM1       DN1           -15.9047725464       31.7581465241      -36.2603741805  IM1       48              0.0000000000
      5376       288  IM1       C2            -15.5111173447       30.6075138853      -35.6226535429  IM1       48              0.0000000000
      5377       288  IM1       DC2           -15.5161934028       30.6128547300      -35.6276641740  IM1       48              0.0000000000
      5378       288  IM1       H4            -16.1933957742       30.0192811433      -35.0215151346  IM1       48              0.0000000000
      5379       288  IM1       C3            -14.1715079957       30.4667254480      -35.9080948473  IM1       48              0.0000000000
      5380       288  IM1       DC3           -14.1701579549       30.4636119638      -35.9127683573  IM1       48              0.0000000000
      5381       288  IM1       H5            -13.4915671168       29.7013105264      -35.5549526676  IM1       48              0.0000000000
      5382       288  IM1       C4            -14.8288512137       32.2587346191      -36.8958012847  IM1       48              0.0000000000
      5383       288  IM1       DC4           -14.8322517990       32.2598813580      -36.8985927518  IM1       48              0.0000000000
      5384       288  IM1       H6            -14.8642906835       33.1861111899      -37.4674801640  IM1       48              0.0000000000
      5385       288  IM1       N2            -13.7620663220       31.4881138704      -36.7156996752  IM1       48              0.0000000000
      5386       288  IM1       DN2           -13.7669835717       31.4846690262      -36.7187225618  IM1       48              0.0000000000
      5387       288  IM1       H7            -12.8368567245       31.6617520846      -37.0530970244  IM1       48              0.0000000000
      5388       288  IM1       LPN21         -13.4893048669       31.5344944488      -36.8316739420  IM1       48              0.0000000000
      5389       289  IM1       C1             10.3172917425       28.5342241037        2.5205397968  IM1       49              0.0000000000
      5390       289  IM1       DC1            10.3231917847       28.5295433305        2.5259733580  IM1       49              0.0000000000
      5391       289  IM1       H1              9.5914826127       28.6211070391        3.3571839654  IM1       49              0.0000000000
      5392       289  IM1       H2             10.1089424917       27.6024383639        1.9524844070  IM1       49              0.0000000000
      5393       289  IM1       H3             10.2334585654       29.4218653799        1.8576778480  IM1       49              0.0000000000
      5394       289  IM1       N1             11.6492289258       28.4769043982        3.0391486497  IM1       49              0.0000000000
      5395       289  IM1       DN1            11.6532270641       28.4725051916        3.0561124014  IM1       49              0.0000000000
      5396       289  IM1       C2             11.9987064068       28.4482039433        4.3714900930  IM1       49              0.0000000000
      5397       289  IM1       DC2            12.0054640614       28.4355680132        4.3824334025  IM1       49              0.0000000000
      5398       289  IM1       H4             11.2465192708       28.5364960701        5.1456399574  IM1       49              0.0000000000
      5399       289  IM1       C3             13.3683707679       28.3286998381        4.4009533102  IM1       49              0.0000000000
      5400       289  IM1       DC3            13.3790248441       28.3269554640        4.4136672842  IM1       49              0.0000000000
      5401       289  IM1       H5             14.0173541615       28.2700988702        5.2659824897  IM1       49              0.0000000000
      5402       289  IM1       C4             12.8096639339       28.3625400453        2.3320222016  IM1       49              0.0000000000
      5403       289  IM1       DC4            12.7951845893       28.3464748628        2.3528924446  IM1       49              0.0000000000
      5404       289  IM1       H6             12.8338198938       28.3555315690        1.2423124371  IM1       49              0.0000000000
      5405       289  IM1       N2             13.8626651533       28.2499340120        3.1410892228  IM1       49              0.0000000000
      5406       289  IM1       DN2            13.8658446162       28.2382953096        3.1556279902  IM1       49              0.0000000000
      5407       289  IM1       H7             14.8189301315       28.1555445740        2.8642356055  IM1       49              0.0000000000
      5408       289  IM1       LPN21          14.1486661031       28.2145601114        3.0577097057  IM1       49              0.0000000000
      5409       290  IM1       C1              2.6490259546       19.3777334673       25.4712062327  IM1       50              0.0000000000
      5410       290  IM1       DC1             2.6500159525       19.3916919967       25.4688614904  IM1       50              0.0000000000
      5411       290  IM1       H1              3.0844955707       20.3808645571       25.2752081970  IM1       50              0.0000000000
      5412       290  IM1       H2              2.7216567168       18.7594994818       24.5509712014  IM1       50              0.0000000000
      5413       290  IM1       H3              3.1948840580       18.8755155845       26.2983320573  IM1       50              0.0000000000
      5414       290  IM1       N1              1.2713539793       19.5107061747       25.8323558981  IM1       50              0.0000000000
      5415       290  IM1       DN1             1.2669966356       19.5185394188       25.8303522092  IM1       50              0.0000000000
      5416       290  IM1       C2              0.5833537841       20.6957692172       25.9531802028  IM1       50              0.0000000000
      5417       290  IM1       DC2             0.5843215933       20.6978837915       25.9579475234  IM1       50              0.0000000000
      5418       290  IM1       H4              1.0695931621       21.6319899626       25.7083313041  IM1       50              0.0000000000
      5419       290  IM1       C3             -0.6630603198       20.3753169002       26.4408007209  IM1       50              0.0000000000
      5420       290  IM1       DC3            -0.6773328544       20.3848100833       26.4482006414  IM1       50              0.0000000000
      5421       290  IM1       H5             -1.4803950218       21.0401353358       26.6915384977  IM1       50              0.0000000000
      5422       290  IM1       C4              0.4163762784       18.5300356034       26.2303899854  IM1       50              0.0000000000
      5423       290  IM1       DC4             0.4201564997       18.5527287628       26.2308079968  IM1       50              0.0000000000
      5424       290  IM1       H6              0.7037868597       17.4787143793       26.2155966926  IM1       50              0.0000000000
      5425       290  IM1       N2             -0.7597228213       19.0296364834       26.6128816648  IM1       50              0.0000000000
      5426       290  IM1       DN2            -0.7646973120       19.0391258682       26.6183734784  IM1       50              0.0000000000
      5427       290  IM1       H7             -1.5520846559       18.5090586359       26.9309405081  IM1       50              0.0000000000
      5428       290  IM1       LPN21          -0.9945470800       18.8734724999       26.7152065288  IM1       50              0.0000000000
      5429       291  IM1       C1             -8.6823304186       -1.0471299108      -16.1826126457  IM1       51              0.0000000000
      5430       291  IM1       DC1            -8.6578346981       -1.0402807473      -16.2007264059  IM1       51              0.0000000000
      5431       291  IM1       H1             -7.7435972151       -0.4824298006      -15.9976403287  IM1       51              0.0000000000
      5432       291  IM1       H2             -8.6357791609       -1.6169662290      -17.1352093873  IM1       51              0.0000000000
      5433       291  IM1       H3             -8.8810433050       -1.7366356873      -15.3344287190  IM1       51              0.0000000000
      5434       291  IM1       N1             -9.7710650226       -0.1499181681      -16.2269103626  IM1       51              0.0000000000
      5435       291  IM1       DN1            -9.7730308942       -0.1550596714      -16.2380514902  IM1       51              0.0000000000
      5436       291  IM1       C2             -9.7029907618        1.2183878770      -16.1882176654  IM1       51              0.0000000000
      5437       291  IM1       DC2            -9.7029227866        1.2038072226      -16.2091958901  IM1       51              0.0000000000
      5438       291  IM1       H4             -8.7557047468        1.7343459949      -16.0916494180  IM1       51              0.0000000000
      5439       291  IM1       C3            -11.0080591173        1.6618160985      -16.1801678373  IM1       51              0.0000000000
      5440       291  IM1       DC3           -11.0107687808        1.6666078342      -16.1883995543  IM1       51              0.0000000000
      5441       291  IM1       H5            -11.3645313394        2.6844537284      -16.1747982252  IM1       51              0.0000000000
      5442       291  IM1       C4            -11.0871996584       -0.4804280744      -16.2826870467  IM1       51              0.0000000000
      5443       291  IM1       DC4           -11.0882108203       -0.4780048670      -16.2937436462  IM1       51              0.0000000000
      5444       291  IM1       H6            -11.4179196304       -1.5154940198      -16.3684937405  IM1       51              0.0000000000
      5445       291  IM1       N2            -11.8608329291        0.5967158908      -16.2715202710  IM1       51              0.0000000000
      5446       291  IM1       DN2           -11.8645413898        0.5932287566      -16.2784549798  IM1       51              0.0000000000
      5447       291  IM1       H7            -12.8561180129        0.6281063116      -16.3632930522  IM1       51              0.0000000000
      5448       291  IM1       LPN21         -12.1604610523        0.5988823715      -16.2862950517  IM1       51              0.0000000000
      5449       292  IM1       C1             10.4027444592      -24.4958005952       13.3078906477  IM1       52              0.0000000000
      5450       292  IM1       DC1            10.4081362558      -24.5108767721       13.3243738269  IM1       52              0.0000000000
      5451       292  IM1       H1             10.1422201207      -25.3425954162       13.9782536839  IM1       52              0.0000000000
      5452       292  IM1       H2              9.4452925175      -24.0057425516       13.0295924345  IM1       52              0.0000000000
      5453       292  IM1       H3             11.0773741814      -23.7645027302       13.8022580934  IM1       52              0.0000000000
      5454       292  IM1       N1             11.0112214278      -24.9702571838       12.1172919891  IM1       52              0.0000000000
      5455       292  IM1       DN1            11.0130938685      -24.9688539785       12.1235606639  IM1       52              0.0000000000
      5456       292  IM1       C2             11.2465451503      -26.2884030993       11.8141242471  IM1       52              0.0000000000
      5457       292  IM1       DC2            11.2333621288      -26.2826412605       11.8366981663  IM1       52              0.0000000000
      5458       292  IM1       H4             10.9278501914      -27.0979796437       12.4590338080  IM1       52              0.0000000000
      5459       292  IM1       C3             11.8749314914      -26.2883189341       10.5881300835  IM1       52              0.0000000000
      5460       292  IM1       DC3            11.8725929424      -26.2907568812       10.5991818722  IM1       52              0.0000000000
      5461       292  IM1       H5             12.2125221784      -27.1429412084       10.0149439912  IM1       52              0.0000000000
      5462       292  IM1       C4             11.4958766183      -24.2351433685       11.0778426997  IM1       52              0.0000000000
      5463       292  IM1       DC4            11.4941107536      -24.2450000718       11.0887271740  IM1       52              0.0000000000
      5464       292  IM1       H6             11.4433085443      -23.1466857481       11.0534171776  IM1       52              0.0000000000
      5465       292  IM1       N2             12.0248779135      -25.0103746346       10.1383449299  IM1       52              0.0000000000
      5466       292  IM1       DN2            12.0242279475      -25.0151616222       10.1386029631  IM1       52              0.0000000000
      5467       292  IM1       H7             12.4450727532      -24.7138218062        9.2807362099  IM1       52              0.0000000000
      5468       292  IM1       LPN21          12.1501370206      -24.9175720672        9.8820290319  IM1       52              0.0000000000
      5469       293  IM1       C1             27.1592476997      -28.7229249367       16.9140818656  IM1       53              0.0000000000
      5470       293  IM1       DC1            27.1706142408      -28.7010883104       16.9159458096  IM1       53              0.0000000000
      5471       293  IM1       H1             27.5640921521      -28.8317184460       17.9429579231  IM1       53              0.0000000000
      5472       293  IM1       H2             27.6704386119      -29.4364133219       16.2329510574  IM1       53              0.0000000000
      5473       293  IM1       H3             26.0723245222      -28.9526649270       16.9258523411  IM1       53              0.0000000000
      5474       293  IM1       N1             27.3679130935      -27.3820826029       16.4394554040  IM1       53              0.0000000000
      5475       293  IM1       DN1            27.3723304124      -27.3638501022       16.4422064570  IM1       53              0.0000000000
      5476       293  IM1       C2             27.8042565745      -26.3098119678       17.1883680094  IM1       53              0.0000000000
      5477       293  IM1       DC2            27.7993531841      -26.2983069268       17.1882198725  IM1       53              0.0000000000
      5478       293  IM1       H4             28.1627035896      -26.4576672614       18.1995769638  IM1       53              0.0000000000
      5479       293  IM1       C3             27.7246394847      -25.2043126157       16.3709253691  IM1       53              0.0000000000
      5480       293  IM1       DC3            27.7218117830      -25.1808590741       16.3750522870  IM1       53              0.0000000000
      5481       293  IM1       H5             28.0017503208      -24.1804567331       16.5895979924  IM1       53              0.0000000000
      5482       293  IM1       C4             27.0459675976      -26.8804448651       15.2131166161  IM1       53              0.0000000000
      5483       293  IM1       DC4            27.0451311000      -26.8739457316       15.2303059286  IM1       53              0.0000000000
      5484       293  IM1       H6             26.6392116825      -27.5075187026       14.4197516132  IM1       53              0.0000000000
      5485       293  IM1       N2             27.2168891045      -25.5598023438       15.1592814457  IM1       53              0.0000000000
      5486       293  IM1       DN2            27.2119355149      -25.5501952646       15.1666587640  IM1       53              0.0000000000
      5487       293  IM1       H7             27.0321003820      -24.9674879442       14.3750513902  IM1       53              0.0000000000
      5488       293  IM1       LPN21          27.1547570192      -25.3818567418       14.9258827167  IM1       53              0.0000000000
      5489       294  IM1       C1             32.1898564752      -13.4015966203       18.8014161232  IM1       54              0.0000000000
      5490       294  IM1       DC1            32.2090185379      -13.4078179468       18.8029267801  IM1       54              0.0000000000
      5491       294  IM1       H1             32.6012163770      -13.9346723357       17.9177112441  IM1       54              0.0000000000
      5492       294  IM1       H2             31.7014325625      -14.1280903349       19.4854994247  IM1       54              0.0000000000
      5493       294  IM1       H3             32.9903594535      -12.8388518743       19.3275666080  IM1       54              0.0000000000
      5494       294  IM1       N1             31.2073361289      -12.4737527947       18.3772320886  IM1       54              0.0000000000
      5495       294  IM1       DN1            31.2142831268      -12.4861328455       18.3871459798  IM1       54              0.0000000000
      5496       294  IM1       C2             30.7965948552      -12.2560836393       17.0842226577  IM1       54              0.0000000000
      5497       294  IM1       DC2            30.8184600841      -12.2727466633       17.0990535933  IM1       54              0.0000000000
      5498       294  IM1       H4             31.1929847394      -12.8353284573       16.2594563261  IM1       54              0.0000000000
      5499       294  IM1       C3             29.8231885468      -11.2835943192       17.1503656470  IM1       54              0.0000000000
      5500       294  IM1       DC3            29.8370585123      -11.3038280380       17.1443516361  IM1       54              0.0000000000
      5501       294  IM1       H5             29.2432344194      -10.8564109449       16.3416280037  IM1       54              0.0000000000
      5502       294  IM1       C4             30.4819625476      -11.6400144256       19.1664198094  IM1       54              0.0000000000
      5503       294  IM1       DC4            30.4896702971      -11.6598513894       19.1635187415  IM1       54              0.0000000000
      5504       294  IM1       H6             30.6114738724      -11.5946103229       20.2477455162  IM1       54              0.0000000000
      5505       294  IM1       N2             29.6291749880      -10.9237570482       18.4514888739  IM1       54              0.0000000000
      5506       294  IM1       DN2            29.6394707629      -10.9420268320       18.4452077600  IM1       54              0.0000000000
      5507       294  IM1       H7             28.9908856427      -10.2366168556       18.7985120253  IM1       54              0.0000000000
      5508       294  IM1       LPN21          29.4343348589      -10.7234567408       18.5606543948  IM1       54              0.0000000000
      5509       295  IM1       C1             19.5648906102      -22.0143815440      -36.6874836329  IM1       55              0.0000000000
      5510       295  IM1       DC1            19.5565571927      -22.0072071194      -36.6927911471  IM1       55              0.0000000000
      5511       295  IM1       H1             19.4663935845      -21.3160647920      -37.5459549781  IM1       55              0.0000000000
      5512       295  IM1       H2             18.8188006240      -21.7452523059      -35.9095117917  IM1       55              0.0000000000
      5513       295  IM1       H3             19.4143627724      -23.0569852295      -37.0405274363  IM1       55              0.0000000000
      5514       295  IM1       N1             20.8722598980      -21.9106679298      -36.1185522797  IM1       55              0.0000000000
      5515       295  IM1       DN1            20.8636336796      -21.9112294363      -36.1188638874  IM1       55              0.0000000000
      5516       295  IM1       C2             21.8572559938      -21.0492555392      -36.5338729470  IM1       55              0.0000000000
      5517       295  IM1       DC2            21.8371023745      -21.0547419376      -36.5522318425  IM1       55              0.0000000000
      5518       295  IM1       H4             21.6603926347      -20.3128467928      -37.3031817121  IM1       55              0.0000000000
      5519       295  IM1       C3             22.9494647046      -21.2697913674      -35.7278570022  IM1       55              0.0000000000
      5520       295  IM1       DC3            22.9356258955      -21.2608905139      -35.7397977964  IM1       55              0.0000000000
      5521       295  IM1       H5             23.9141201195      -20.7779073314      -35.7473255835  IM1       55              0.0000000000
      5522       295  IM1       C4             21.4021135883      -22.6203742729      -35.0852441534  IM1       55              0.0000000000
      5523       295  IM1       DC4            21.3934230797      -22.6099805850      -35.0972090504  IM1       55              0.0000000000
      5524       295  IM1       H6             20.8442652416      -23.3890518784      -34.5504171150  IM1       55              0.0000000000
      5525       295  IM1       N2             22.6527504259      -22.2510269401      -34.8320849304  IM1       55              0.0000000000
      5526       295  IM1       DN2            22.6475653751      -22.2443141182      -34.8423328125  IM1       55              0.0000000000
      5527       295  IM1       H7             23.2522487126      -22.6150735977      -34.1192933512  IM1       55              0.0000000000
      5528       295  IM1       LPN21          22.8300406500      -22.3648057763      -34.6184905651  IM1       55              0.0000000000
      5529       296  IM1       C1              9.0894121316       -1.6054002152       12.7851878842  IM1       56              0.0000000000
      5530       296  IM1       DC1             9.0838071986       -1.6027555074       12.7730413799  IM1       56              0.0000000000
      5531       296  IM1       H1              8.2073523458       -1.8728032499       12.1648757456  IM1       56              0.0000000000
      5532       296  IM1       H2              9.2620467530       -2.4172345945       13.5237291678  IM1       56              0.0000000000
      5533       296  IM1       H3              9.9913254769       -1.4726352052       12.1501707447  IM1       56              0.0000000000
      5534       296  IM1       N1              8.8325566885       -0.3834516048       13.4788905079  IM1       56              0.0000000000
      5535       296  IM1       DN1             8.8379379173       -0.3906319745       13.4804229989  IM1       56              0.0000000000
      5536       296  IM1       C2              7.6762688817        0.3659931786       13.4191940180  IM1       56              0.0000000000
      5537       296  IM1       DC2             7.6859959074        0.3450642931       13.3988243626  IM1       56              0.0000000000
      5538       296  IM1       H4              6.8390088178        0.0703280321       12.7991402247  IM1       56              0.0000000000
      5539       296  IM1       C3              7.8719890055        1.4432594087       14.2621370363  IM1       56              0.0000000000
      5540       296  IM1       DC3             7.8746070259        1.4308905164       14.2342079189  IM1       56              0.0000000000
      5541       296  IM1       H5              7.2078039744        2.2723305348       14.4728223759  IM1       56              0.0000000000
      5542       296  IM1       C4              9.6795720889        0.2712093084       14.3211036983  IM1       56              0.0000000000
      5543       296  IM1       DC4             9.6686696016        0.2562980342       14.3137003936  IM1       56              0.0000000000
      5544       296  IM1       H6             10.6832669635       -0.0908621437       14.5438162137  IM1       56              0.0000000000
      5545       296  IM1       N2              9.1296797558        1.3800483603       14.7971524178  IM1       56              0.0000000000
      5546       296  IM1       DN2             9.1265995411        1.3749363544       14.7866144992  IM1       56              0.0000000000
      5547       296  IM1       H7              9.5548581414        2.0351934865       15.4216587861  IM1       56              0.0000000000
      5548       296  IM1       LPN21           9.2609927672        1.5739431875       14.9846669214  IM1       56              0.0000000000
      5549       297  IM1       C1              2.2938255834        3.2039438979      -23.1502117002  IM1       57              0.0000000000
      5550       297  IM1       DC1             2.3076782459        3.1993547605      -23.1668159030  IM1       57              0.0000000000
      5551       297  IM1       H1              1.7422313599        2.3696565040      -23.6339775082  IM1       57              0.0000000000
      5552       297  IM1       H2              3.0815024612        3.6001801752      -23.8261428728  IM1       57              0.0000000000
      5553       297  IM1       H3              1.5837554790        4.0152289654      -22.8819991232  IM1       57              0.0000000000
      5554       297  IM1       N1              2.9026392996        2.7282368897      -21.9568908202  IM1       57              0.0000000000
      5555       297  IM1       DN1             2.9146068198        2.7546585571      -21.9639495874  IM1       57              0.0000000000
      5556       297  IM1       C2              2.8770550317        1.4481551725      -21.4656707794  IM1       57              0.0000000000
      5557       297  IM1       DC2             2.8891843417        1.4826776711      -21.4905883983  IM1       57              0.0000000000
      5558       297  IM1       H4              2.2830027617        0.6693700603      -21.9277147702  IM1       57              0.0000000000
      5559       297  IM1       C3              3.7492087529        1.4234843995      -20.3957631995  IM1       57              0.0000000000
      5560       297  IM1       DC3             3.7453501852        1.4455534557      -20.4011675814  IM1       57              0.0000000000
      5561       297  IM1       H5              3.9781220120        0.5979574000      -19.7331978118  IM1       57              0.0000000000
      5562       297  IM1       C4              3.7870550563        3.4165920854      -21.1913568468  IM1       57              0.0000000000
      5563       297  IM1       DC4             3.7966295508        3.4245505559      -21.1958722490  IM1       57              0.0000000000
      5564       297  IM1       H6              3.9953821665        4.4720459962      -21.3666190999  IM1       57              0.0000000000
      5565       297  IM1       N2              4.3450251900        2.6581516870      -20.2620685172  IM1       57              0.0000000000
      5566       297  IM1       DN2             4.3659031089        2.6773887888      -20.2641998015  IM1       57              0.0000000000
      5567       297  IM1       H7              4.9626472142        2.9508323629      -19.5320814919  IM1       57              0.0000000000
      5568       297  IM1       LPN21           4.5561479271        2.7453411451      -20.0675815298  IM1       57              0.0000000000
      5569       298  IM1       C1            -22.9329508727      -17.6033676559      -11.1930772485  IM1       58              0.0000000000
      5570       298  IM1       DC1           -22.9335521062      -17.5912325099      -11.1728461433  IM1       58              0.0000000000
      5571       298  IM1       H1            -23.1062598649      -16.5775299839      -11.5828747158  IM1       58              0.0000000000
      5572       298  IM1       H2            -23.8704458606      -18.0106868934      -10.7577438276  IM1       58              0.0000000000
      5573       298  IM1       H3            -22.6006925971      -18.2460193282      -12.0362404986  IM1       58              0.0000000000
      5574       298  IM1       N1            -21.9084858105      -17.5829696180      -10.1932105288  IM1       58              0.0000000000
      5575       298  IM1       DN1           -21.9102462280      -17.5838032873      -10.1778055639  IM1       58              0.0000000000
      5576       298  IM1       C2            -21.2296862619      -16.4703755790       -9.7471321304  IM1       58              0.0000000000
      5577       298  IM1       DC2           -21.2420550397      -16.4804161352       -9.7428816149  IM1       58              0.0000000000
      5578       298  IM1       H4            -21.3954096647      -15.4932719726      -10.1838165657  IM1       58              0.0000000000
      5579       298  IM1       C3            -20.3713922319      -16.9088202829       -8.7622122639  IM1       58              0.0000000000
      5580       298  IM1       DC3           -20.3698801212      -16.9084758777       -8.7528327728  IM1       58              0.0000000000
      5581       298  IM1       H5            -19.6699868582      -16.3281149751       -8.1759522119  IM1       58              0.0000000000
      5582       298  IM1       C4            -21.4434669974      -18.6362732595       -9.4633536182  IM1       58              0.0000000000
      5583       298  IM1       DC4           -21.4444779478      -18.6317859769       -9.4637566949  IM1       58              0.0000000000
      5584       298  IM1       H6            -21.8063894980      -19.6533233239       -9.6116655362  IM1       58              0.0000000000
      5585       298  IM1       N2            -20.5170042721      -18.2562663724       -8.5880629191  IM1       58              0.0000000000
      5586       298  IM1       DN2           -20.5156787443      -18.2565050303       -8.5859310029  IM1       58              0.0000000000
      5587       298  IM1       H7            -20.0210370440      -18.8430008698       -7.9479386045  IM1       58              0.0000000000
      5588       298  IM1       LPN21         -20.3730474967      -18.4346968345       -8.3945712732  IM1       58              0.0000000000
      5589       299  IM1       C1             14.9443861706        9.7539575968        7.8960635000  IM1       59              0.0000000000
      5590       299  IM1       DC1            14.9424344515        9.7466787592        7.8637349911  IM1       59              0.0000000000
      5591       299  IM1       H1             14.0226545927       10.3349471154        7.6788468354  IM1       59              0.0000000000
      5592       299  IM1       H2             15.6819463544        9.8953101352        7.0773172415  IM1       59              0.0000000000
      5593       299  IM1       H3             15.3898007973       10.0877265517        8.8575857801  IM1       59              0.0000000000
      5594       299  IM1       N1             14.6231960183        8.3769281363        8.0259196729  IM1       59              0.0000000000
      5595       299  IM1       DN1            14.6193671148        8.3634867484        8.0099104143  IM1       59              0.0000000000
      5596       299  IM1       C2             13.3926435617        7.7932935865        7.8229339975  IM1       59              0.0000000000
      5597       299  IM1       DC2            13.3967771801        7.7871951357        7.8073065689  IM1       59              0.0000000000
      5598       299  IM1       H4             12.4981434250        8.3949733210        7.7193000137  IM1       59              0.0000000000
      5599       299  IM1       C3             13.5985089809        6.4387052292        7.9330752919  IM1       59              0.0000000000
      5600       299  IM1       DC3            13.5941614452        6.4262820061        7.9201482153  IM1       59              0.0000000000
      5601       299  IM1       H5             12.8743859026        5.6410413616        7.8223182518  IM1       59              0.0000000000
      5602       299  IM1       C4             15.5102069190        7.3658444272        8.2246133514  IM1       59              0.0000000000
      5603       299  IM1       DC4            15.5017348405        7.3654828942        8.2047198547  IM1       59              0.0000000000
      5604       299  IM1       H6             16.5694977030        7.5543874239        8.3991257389  IM1       59              0.0000000000
      5605       299  IM1       N2             14.9177357756        6.1790308968        8.1510797264  IM1       59              0.0000000000
      5606       299  IM1       DN2            14.9143456322        6.1772326976        8.1424651098  IM1       59              0.0000000000
      5607       299  IM1       H7             15.3503703661        5.2851166855        8.2683174930  IM1       59              0.0000000000
      5608       299  IM1       LPN21          15.0519331399        5.9120486404        8.1777544753  IM1       59              0.0000000000
      5609       300  IM1       C1             27.1301825313        7.0742896297      -20.7434412153  IM1       60              0.0000000000
      5610       300  IM1       DC1            27.1288978497        7.0784624425      -20.7262663007  IM1       60              0.0000000000
      5611       300  IM1       H1             27.2202102309        7.5539149384      -19.7453552578  IM1       60              0.0000000000
      5612       300  IM1       H2             28.0795259633        7.1943816647      -21.3079285506  IM1       60              0.0000000000
      5613       300  IM1       H3             26.8816663564        5.9970010474      -20.6338509732  IM1       60              0.0000000000
      5614       300  IM1       N1             26.0842017375        7.7018393412      -21.4829720488  IM1       60              0.0000000000
      5615       300  IM1       DN1            26.0774527643        7.7050541583      -21.4794878604  IM1       60              0.0000000000
      5616       300  IM1       C2             25.2779649549        8.7256565495      -21.0412266564  IM1       60              0.0000000000
      5617       300  IM1       DC2            25.2858631941        8.7266934146      -21.0336162581  IM1       60              0.0000000000
      5618       300  IM1       H4             25.4244926326        9.1740832213      -20.0663768425  IM1       60              0.0000000000
      5619       300  IM1       C3             24.4051543221        8.9983579789      -22.0744582758  IM1       60              0.0000000000
      5620       300  IM1       DC3            24.4097020019        9.0021313914      -22.0723264087  IM1       60              0.0000000000
      5621       300  IM1       H5             23.6516307683        9.7744504182      -22.1271059682  IM1       60              0.0000000000
      5622       300  IM1       C4             25.6745392692        7.4010746820      -22.7463209473  IM1       60              0.0000000000
      5623       300  IM1       DC4            25.6740161991        7.4120205823      -22.7359490798  IM1       60              0.0000000000
      5624       300  IM1       H6             26.1548173551        6.6281863941      -23.3463848228  IM1       60              0.0000000000
      5625       300  IM1       N2             24.6689895545        8.1792739138      -23.1334209572  IM1       60              0.0000000000
      5626       300  IM1       DN2            24.6688460818        8.1851472119      -23.1318771808  IM1       60              0.0000000000
      5627       300  IM1       H7             24.2200653512        8.1774093813      -24.0269888523  IM1       60              0.0000000000
      5628       300  IM1       LPN21          24.5321484518        8.1716902998      -23.4002860943  IM1       60              0.0000000000
      5629       301  IM1       C1            -11.4913854186      -11.9512025075       13.1310730670  IM1       61              0.0000000000
      5630       301  IM1       DC1           -11.5017085862      -11.9716928128       13.1261409424  IM1       61              0.0000000000
      5631       301  IM1       H1            -10.9241485179      -10.9960239140       13.1170319235  IM1       61              0.0000000000
      5632       301  IM1       H2            -12.1167800510      -11.9931165850       14.0483765958  IM1       61              0.0000000000
      5633       301  IM1       H3            -12.1075470763      -12.0123411636       12.2086155460  IM1       61              0.0000000000
      5634       301  IM1       N1            -10.5701274257      -13.0237999175       13.1531516465  IM1       61              0.0000000000
      5635       301  IM1       DN1           -10.5875987857      -13.0417626722       13.1493845300  IM1       61              0.0000000000
      5636       301  IM1       C2             -9.2045990409      -12.9142398528       13.1056434340  IM1       61              0.0000000000
      5637       301  IM1       DC2            -9.2396280167      -12.9148526796       13.1054233985  IM1       61              0.0000000000
      5638       301  IM1       H4             -8.7073992523      -11.9521332164       13.0999697809  IM1       61              0.0000000000
      5639       301  IM1       C3             -8.7128108976      -14.2001681318       13.1131539940  IM1       61              0.0000000000
      5640       301  IM1       DC3            -8.7340061108      -14.2027164998       13.1052023254  IM1       61              0.0000000000
      5641       301  IM1       H5             -7.6777327233      -14.5185830307       13.1024709735  IM1       61              0.0000000000
      5642       301  IM1       C4            -10.8555448415      -14.3504272994       13.1869573218  IM1       61              0.0000000000
      5643       301  IM1       DC4           -10.8726360830      -14.3542371433       13.1762504237  IM1       61              0.0000000000
      5644       301  IM1       H6            -11.8764999403      -14.7316993388       13.2065102812  IM1       61              0.0000000000
      5645       301  IM1       N2             -9.7550042087      -15.0878756555       13.1448761079  IM1       61              0.0000000000
      5646       301  IM1       DN2            -9.7656159727      -15.0908160545       13.1364819044  IM1       61              0.0000000000
      5647       301  IM1       H7             -9.7017554727      -16.0863057170       13.1274984084  IM1       61              0.0000000000
      5648       301  IM1       LPN21          -9.7442928764      -15.3876782946       13.1429669316  IM1       61              0.0000000000
      5649       302  IM1       C1             21.8128288215       34.5331893804      -36.3298021212  IM1       62              0.0000000000
      5650       302  IM1       DC1            21.8133278754       34.5399500343      -36.3190816346  IM1       62              0.0000000000
      5651       302  IM1       H1             22.6756495597       35.1021094629      -36.7374678095  IM1       62              0.0000000000
      5652       302  IM1       H2             21.5690807860       34.8863206162      -35.3050064211  IM1       62              0.0000000000
      5653       302  IM1       H3             20.9374996053       34.6728014374      -36.9995992826  IM1       62              0.0000000000
      5654       302  IM1       N1             22.1415920614       33.1369664286      -36.2768240980  IM1       62              0.0000000000
      5655       302  IM1       DN1            22.1341442741       33.1388271279      -36.2688275783  IM1       62              0.0000000000
      5656       302  IM1       C2             23.3917051473       32.5769080027      -36.4180833699  IM1       62              0.0000000000
      5657       302  IM1       DC2            23.3760036369       32.5889797405      -36.4222535116  IM1       62              0.0000000000
      5658       302  IM1       H4             24.2598556211       33.1792476482      -36.6555506438  IM1       62              0.0000000000
      5659       302  IM1       C3             23.2074941424       31.2093742580      -36.3547212369  IM1       62              0.0000000000
      5660       302  IM1       DC3            23.2036873800       31.2168519362      -36.3588284440  IM1       62              0.0000000000
      5661       302  IM1       H5             23.9399225059       30.4158912132      -36.4373187552  IM1       62              0.0000000000
      5662       302  IM1       C4             21.2706136828       32.0972064015      -36.1458856033  IM1       62              0.0000000000
      5663       302  IM1       DC4            21.2736036771       32.1026913945      -36.1286424257  IM1       62              0.0000000000
      5664       302  IM1       H6             20.1913559901       32.2448379119      -36.1070555894  IM1       62              0.0000000000
      5665       302  IM1       N2             21.8845534817       30.9244250347      -36.2076561169  IM1       62              0.0000000000
      5666       302  IM1       DN2            21.8833602932       30.9270792021      -36.2074376559  IM1       62              0.0000000000
      5667       302  IM1       H7             21.4589449790       30.0203894240      -36.2473677902  IM1       62              0.0000000000
      5668       302  IM1       LPN21          21.7534730365       30.6550382049      -36.1918873883  IM1       62              0.0000000000
      5669       303  IM1       C1              0.4661292800      -23.9301251228      -34.1946865784  IM1       63              0.0000000000
      5670       303  IM1       DC1             0.4610828258      -23.9148165214      -34.1872968264  IM1       63              0.0000000000
      5671       303  IM1       H1              1.4316337476      -23.8730750915      -33.6479989012  IM1       63              0.0000000000
      5672       303  IM1       H2              0.6102925504      -24.5037051329      -35.1351885314  IM1       63              0.0000000000
      5673       303  IM1       H3             -0.2971840235      -24.4242148075      -33.5562907895  IM1       63              0.0000000000
      5674       303  IM1       N1              0.0204160498      -22.6206622878      -34.5395179764  IM1       63              0.0000000000
      5675       303  IM1       DN1             0.0096340310      -22.6151967199      -34.5405322495  IM1       63              0.0000000000
      5676       303  IM1       C2              0.6575093922      -21.4310598336      -34.2574899926  IM1       63              0.0000000000
      5677       303  IM1       DC2             0.6646491456      -21.4494819244      -34.2509137715  IM1       63              0.0000000000
      5678       303  IM1       H4              1.5877010608      -21.4059590542      -33.7034120095  IM1       63              0.0000000000
      5679       303  IM1       C3             -0.1317665974      -20.4363587526      -34.7988044064  IM1       63              0.0000000000
      5680       303  IM1       DC3            -0.1230582630      -20.4482879796      -34.7927002003  IM1       63              0.0000000000
      5681       303  IM1       H5              0.0219070152      -19.3644554264      -34.7815799995  IM1       63              0.0000000000
      5682       303  IM1       C4             -1.1095620688      -22.3061466617      -35.2299359209  IM1       63              0.0000000000
      5683       303  IM1       DC4            -1.1093511109      -22.3154156381      -35.2216746516  IM1       63              0.0000000000
      5684       303  IM1       H6             -1.8105359672      -23.0622829395      -35.5834801548  IM1       63              0.0000000000
      5685       303  IM1       N2             -1.2265376089      -20.9961859404      -35.3981567505  IM1       63              0.0000000000
      5686       303  IM1       DN2            -1.2188186658      -21.0025758335      -35.3959647803  IM1       63              0.0000000000
      5687       303  IM1       H7             -1.9758629920      -20.5163302019      -35.8545008537  IM1       63              0.0000000000
      5688       303  IM1       LPN21          -1.4511374573      -20.8572072702      -35.5404235328  IM1       63              0.0000000000
      5689       304  IM1       C1             28.7061664919       17.7415511542      -17.2329027492  IM1       64              0.0000000000
      5690       304  IM1       DC1            28.7103181927       17.7462858709      -17.2452601845  IM1       64              0.0000000000
      5691       304  IM1       H1             29.4384840925       18.5659191093      -17.3687313439  IM1       64              0.0000000000
      5692       304  IM1       H2             28.9503943223       16.9044066377      -17.9212796992  IM1       64              0.0000000000
      5693       304  IM1       H3             28.7286387607       17.3882323011      -16.1798207076  IM1       64              0.0000000000
      5694       304  IM1       N1             27.3917967825       18.2070368061      -17.5409611367  IM1       64              0.0000000000
      5695       304  IM1       DN1            27.3890500313       18.1970382105      -17.5404795077  IM1       64              0.0000000000
      5696       304  IM1       C2             27.0540681863       19.4645253624      -17.9863258527  IM1       64              0.0000000000
      5697       304  IM1       DC2            27.0672093745       19.4445146212      -17.9845487647  IM1       64              0.0000000000
      5698       304  IM1       H4             27.7952388674       20.2450606111      -18.1059909980  IM1       64              0.0000000000
      5699       304  IM1       C3             25.6802880850       19.4836152686      -18.0928619619  IM1       64              0.0000000000
      5700       304  IM1       DC3            25.6849207151       19.4778540044      -18.0983719817  IM1       64              0.0000000000
      5701       304  IM1       H5             25.0396808466       20.3105124384      -18.3734906074  IM1       64              0.0000000000
      5702       304  IM1       C4             26.2273835285       17.5095818855      -17.4341399149  IM1       64              0.0000000000
      5703       304  IM1       DC4            26.2344959816       17.5092010525      -17.4361481965  IM1       64              0.0000000000
      5704       304  IM1       H6             26.1979618023       16.4688299897      -17.1115413202  IM1       64              0.0000000000
      5705       304  IM1       N2             25.1792737246       18.2538653191      -17.7676229543  IM1       64              0.0000000000
      5706       304  IM1       DN2            25.1815384488       18.2528595312      -17.7679605810  IM1       64              0.0000000000
      5707       304  IM1       H7             24.2193881933       17.9735205359      -17.7624684144  IM1       64              0.0000000000
      5708       304  IM1       LPN21          24.8930201719       18.1641065798      -17.7691303637  IM1       64              0.0000000000
      5709       305  IM1       C1             14.9619659779      -22.8402316180       26.4330819019  IM1       65              0.0000000000
      5710       305  IM1       DC1            14.9699548541      -22.8398394696       26.4308654229  IM1       65              0.0000000000
      5711       305  IM1       H1             15.1573147542      -22.5029054381       27.4734524631  IM1       65              0.0000000000
      5712       305  IM1       H2             15.6290704911      -22.3035295422       25.7250964145  IM1       65              0.0000000000
      5713       305  IM1       H3             15.0994034330      -23.9396085881       26.3506062970  IM1       65              0.0000000000
      5714       305  IM1       N1             13.6328750349      -22.5326069399       26.0861114132  IM1       65              0.0000000000
      5715       305  IM1       DN1            13.6407263767      -22.5466162852       26.0561973295  IM1       65              0.0000000000
      5716       305  IM1       C2             12.7323179439      -21.8329062656       26.8340174755  IM1       65              0.0000000000
      5717       305  IM1       DC2            12.7711091803      -21.8520548851       26.8243611145  IM1       65              0.0000000000
      5718       305  IM1       H4             12.9354054674      -21.5121649266       27.8483002030  IM1       65              0.0000000000
      5719       305  IM1       C3             11.6012798534      -21.7316593062       26.0562428664  IM1       65              0.0000000000
      5720       305  IM1       DC3            11.6361426427      -21.7510609021       26.0460358866  IM1       65              0.0000000000
      5721       305  IM1       H5             10.6784471366      -21.2281606368       26.3165462794  IM1       65              0.0000000000
      5722       305  IM1       C4             13.0308499512      -22.8197284503       24.9070429629  IM1       65              0.0000000000
      5723       305  IM1       DC4            13.0356767423      -22.8353314509       24.8879300528  IM1       65              0.0000000000
      5724       305  IM1       H6             13.5398687473      -23.3836587177       24.1253892553  IM1       65              0.0000000000
      5725       305  IM1       N2             11.7952854307      -22.3708547541       24.8553212524  IM1       65              0.0000000000
      5726       305  IM1       DN2            11.8032891917      -22.3832214196       24.8349488545  IM1       65              0.0000000000
      5727       305  IM1       H7             11.1360248400      -22.4652267461       24.1093524858  IM1       65              0.0000000000
      5728       305  IM1       LPN21          11.6048136310      -22.4056923964       24.6261775591  IM1       65              0.0000000000
      5729       306  IM1       C1             24.3975301538      -13.1990179280       15.1259786790  IM1       66              0.0000000000
      5730       306  IM1       DC1            24.3914262267      -13.2042969149       15.1128346792  IM1       66              0.0000000000
      5731       306  IM1       H1             24.5459348029      -14.2785085256       14.9091905060  IM1       66              0.0000000000
      5732       306  IM1       H2             24.2587616180      -13.0705494948       16.2207664008  IM1       66              0.0000000000
      5733       306  IM1       H3             25.2776046441      -12.6187462163       14.7751587363  IM1       66              0.0000000000
      5734       306  IM1       N1             23.2279772124      -12.7175370411       14.4581408062  IM1       66              0.0000000000
      5735       306  IM1       DN1            23.2210460099      -12.7180176848       14.4479616721  IM1       66              0.0000000000
      5736       306  IM1       C2             22.3974653953      -13.4778470459       13.6667549542  IM1       66              0.0000000000
      5737       306  IM1       DC2            22.4008878791      -13.4768910832       13.6637330007  IM1       66              0.0000000000
      5738       306  IM1       H4             22.5812400260      -14.5372512662       13.5372227778  IM1       66              0.0000000000
      5739       306  IM1       C3             21.3966286462      -12.6368658998       13.2333880723  IM1       66              0.0000000000
      5740       306  IM1       DC3            21.3943723226      -12.6385393746       13.2199284336  IM1       66              0.0000000000
      5741       306  IM1       H5             20.5368689777      -12.8715377119       12.6180577114  IM1       66              0.0000000000
      5742       306  IM1       C4             22.7139597378      -11.4541294328       14.4531645912  IM1       66              0.0000000000
      5743       306  IM1       DC4            22.7166826537      -11.4673406515       14.4430287446  IM1       66              0.0000000000
      5744       306  IM1       H6             23.1768347759      -10.6239873688       14.9867476238  IM1       66              0.0000000000
      5745       306  IM1       N2             21.6221095487      -11.3759544296       13.6965247131  IM1       66              0.0000000000
      5746       306  IM1       DN2            21.6237634709      -11.3817229397       13.6858478552  IM1       66              0.0000000000
      5747       306  IM1       H7             21.0570642866      -10.5638809194       13.5507150185  IM1       66              0.0000000000
      5748       306  IM1       LPN21          21.4618711836      -11.1282067779       13.6422590021  IM1       66              0.0000000000
      5749       307  IM1       C1              0.2822682805      -16.4462942925        9.7777632207  IM1       67              0.0000000000
      5750       307  IM1       DC1             0.2742758422      -16.4487386445        9.7840952616  IM1       67              0.0000000000
      5751       307  IM1       H1             -0.2263639956      -17.3389334805       10.2006219295  IM1       67              0.0000000000
      5752       307  IM1       H2              1.1859892260      -16.2001610305       10.3752813144  IM1       67              0.0000000000
      5753       307  IM1       H3              0.5660537465      -16.6323518053        8.7198551849  IM1       67              0.0000000000
      5754       307  IM1       N1             -0.5862644260      -15.3397891237        9.8286465806  IM1       67              0.0000000000
      5755       307  IM1       DN1            -0.5857191998      -15.3364063982        9.8272144099  IM1       67              0.0000000000
      5756       307  IM1       C2             -1.9002866935      -15.3591096923       10.2263244088  IM1       67              0.0000000000
      5757       307  IM1       DC2            -1.8897708191      -15.3723714118       10.2215663959  IM1       67              0.0000000000
      5758       307  IM1       H4             -2.3689250995      -16.2506130539       10.6244309280  IM1       67              0.0000000000
      5759       307  IM1       C3             -2.3626819781      -14.0792991589       10.0379306301  IM1       67              0.0000000000
      5760       307  IM1       DC3            -2.3672814247      -14.0863904382       10.0414856576  IM1       67              0.0000000000
      5761       307  IM1       H5             -3.3433591927      -13.6879281719       10.2787416613  IM1       67              0.0000000000
      5762       307  IM1       C4             -0.3101081171      -14.0772769705        9.4138844230  IM1       67              0.0000000000
      5763       307  IM1       DC4            -0.3102339570      -14.0915337960        9.4106778842  IM1       67              0.0000000000
      5764       307  IM1       H6              0.6821348718      -13.7752536164        9.0787191713  IM1       67              0.0000000000
      5765       307  IM1       N2             -1.3806249328      -13.3007651012        9.4997279125  IM1       67              0.0000000000
      5766       307  IM1       DN2            -1.3882023577      -13.3114172735        9.4927951456  IM1       67              0.0000000000
      5767       307  IM1       H7             -1.4187504343      -12.3212980499        9.3017613961  IM1       67              0.0000000000
      5768       307  IM1       LPN21          -1.3969367818      -13.0131358355        9.4160420170  IM1       67              0.0000000000
      5769       308  IM1       C1            -25.0342738774      -22.4085674256       15.3901898300  IM1       68              0.0000000000
      5770       308  IM1       DC1           -25.0484790999      -22.4098608828       15.3877071080  IM1       68              0.0000000000
      5771       308  IM1       H1            -25.6784954693      -23.1319405230       14.8461026105  IM1       68              0.0000000000
      5772       308  IM1       H2            -25.5135896773      -22.1236659408       16.3511313002  IM1       68              0.0000000000
      5773       308  IM1       H3            -24.0378065244      -22.8642686478       15.5737932368  IM1       68              0.0000000000
      5774       308  IM1       N1            -24.8583050098      -21.2320071081       14.5979450763  IM1       68              0.0000000000
      5775       308  IM1       DN1           -24.8569555895      -21.2288417510       14.6039123379  IM1       68              0.0000000000
      5776       308  IM1       C2            -25.4283233931      -20.9783618624       13.3703352584  IM1       68              0.0000000000
      5777       308  IM1       DC2           -25.4301651059      -20.9798313089       13.3915834324  IM1       68              0.0000000000
      5778       308  IM1       H4            -26.0294710142      -21.7121286084       12.8477485191  IM1       68              0.0000000000
      5779       308  IM1       C3            -24.9992742936      -19.7242808583       12.9942322151  IM1       68              0.0000000000
      5780       308  IM1       DC3           -24.9980055852      -19.7150695168       13.0038795674  IM1       68              0.0000000000
      5781       308  IM1       H5            -25.2048529030      -19.1940299873       12.0725704284  IM1       68              0.0000000000
      5782       308  IM1       C4            -24.1353954758      -20.1244566554       14.9239474386  IM1       68              0.0000000000
      5783       308  IM1       DC4           -24.1493793296      -20.1241352051       14.9229276244  IM1       68              0.0000000000
      5784       308  IM1       H6            -23.5674998190      -20.0467374398       15.8510689229  IM1       68              0.0000000000
      5785       308  IM1       N2            -24.2324906150      -19.1842845861       13.9878951717  IM1       68              0.0000000000
      5786       308  IM1       DN2           -24.2419855132      -19.1720756712       13.9964716724  IM1       68              0.0000000000
      5787       308  IM1       H7            -23.7618038753      -18.3020375783       13.9781889403  IM1       68              0.0000000000
      5788       308  IM1       LPN21         -24.1088839374      -18.9111411120       13.9985737413  IM1       68              0.0000000000
      5789       309  IM1       C1             27.2526022058       36.6536355579       -2.2676658831  IM1       69              0.0000000000
      5790       309  IM1       DC1            27.2621111035       36.6661979843       -2.2512855279  IM1       69              0.0000000000
      5791       309  IM1       H1             28.1189185634       37.3411053632       -2.1618252676  IM1       69              0.0000000000
      5792       309  IM1       H2             26.6271458424       36.6630766904       -1.3494958539  IM1       69              0.0000000000
      5793       309  IM1       H3             26.6354790015       36.9454390768       -3.1442106101  IM1       69              0.0000000000
      5794       309  IM1       N1             27.7159182571       35.3256514578       -2.4662348015  IM1       69              0.0000000000
      5795       309  IM1       DN1            27.7124244934       35.3358380202       -2.4611721252  IM1       69              0.0000000000
      5796       309  IM1       C2             29.0276068296       34.9244829878       -2.5714203515  IM1       69              0.0000000000
      5797       309  IM1       DC2            29.0146301906       34.9404752358       -2.5619388343  IM1       69              0.0000000000
      5798       309  IM1       H4             29.8523495642       35.6251294405       -2.5291951218  IM1       69              0.0000000000
      5799       309  IM1       C3             28.9956210224       33.5515305403       -2.6757057250  IM1       69              0.0000000000
      5800       309  IM1       DC3            29.0004238909       33.5612249156       -2.6708345941  IM1       69              0.0000000000
      5801       309  IM1       H5             29.8293899880       32.8651633083       -2.7570588877  IM1       69              0.0000000000
      5802       309  IM1       C4             26.9540831235       34.2006544865       -2.5246493386  IM1       69              0.0000000000
      5803       309  IM1       DC4            26.9689683491       34.2136835189       -2.5156460369  IM1       69              0.0000000000
      5804       309  IM1       H6             25.8657701485       34.2256950792       -2.4694420973  IM1       69              0.0000000000
      5805       309  IM1       N2             27.7035717144       33.1143986082       -2.6374500946  IM1       69              0.0000000000
      5806       309  IM1       DN2            27.7094782131       33.1204573325       -2.6339085854  IM1       69              0.0000000000
      5807       309  IM1       H7             27.3778190226       32.1717673067       -2.7104666216  IM1       69              0.0000000000
      5808       309  IM1       LPN21          27.6029761925       32.8321047840       -2.6512608799  IM1       69              0.0000000000
      5809       310  IM1       C1              6.2758699843       36.8061353522      -34.1933301539  IM1       70              0.0000000000
      5810       310  IM1       DC1             6.2607053846       36.8081776357      -34.1937108717  IM1       70              0.0000000000
      5811       310  IM1       H1              5.4378600373       37.3014842728      -33.6578959583  IM1       70              0.0000000000
      5812       310  IM1       H2              5.9438099512       35.8228905045      -34.5899240326  IM1       70              0.0000000000
      5813       310  IM1       H3              6.6558205576       37.4639280745      -35.0040503870  IM1       70              0.0000000000
      5814       310  IM1       N1              7.3520036465       36.5931860502      -33.3140622586  IM1       70              0.0000000000
      5815       310  IM1       DN1             7.3481932297       36.5928101680      -33.3234358027  IM1       70              0.0000000000
      5816       310  IM1       C2              7.3144363590       36.8346183083      -31.9672620778  IM1       70              0.0000000000
      5817       310  IM1       DC2             7.3116966626       36.8268827350      -31.9883813634  IM1       70              0.0000000000
      5818       310  IM1       H4              6.4432640340       37.2665318634      -31.4903989294  IM1       70              0.0000000000
      5819       310  IM1       C3              8.5548692277       36.4856558237      -31.4925889887  IM1       70              0.0000000000
      5820       310  IM1       DC3             8.5517664561       36.4812715114      -31.4901901226  IM1       70              0.0000000000
      5821       310  IM1       H5              8.9048439505       36.5565167749      -30.4701480763  IM1       70              0.0000000000
      5822       310  IM1       C4              8.5930642467       36.1133311332      -33.6009095718  IM1       70              0.0000000000
      5823       310  IM1       DC4             8.5813338160       36.1178322567      -33.5946137389  IM1       70              0.0000000000
      5824       310  IM1       H6              8.9317841378       35.8869497271      -34.6119092228  IM1       70              0.0000000000
      5825       310  IM1       N2              9.3378188168       36.0230040643      -32.5099869826  IM1       70              0.0000000000
      5826       310  IM1       DN2             9.3335847415       36.0232113496      -32.5071493539  IM1       70              0.0000000000
      5827       310  IM1       H7             10.2843201238       35.7038364328      -32.4623708203  IM1       70              0.0000000000
      5828       310  IM1       LPN21           9.6196187345       35.9209929512      -32.4964762772  IM1       70              0.0000000000
      5829       311  IM1       C1             -8.7003824890      -20.5087519191       -5.1618750351  IM1       71              0.0000000000
      5830       311  IM1       DC1            -8.7032438492      -20.5270972981       -5.1666344258  IM1       71              0.0000000000
      5831       311  IM1       H1             -8.6183059845      -20.7379924248       -6.2458645352  IM1       71              0.0000000000
      5832       311  IM1       H2             -7.6804910736      -20.4165293162       -4.7310183405  IM1       71              0.0000000000
      5833       311  IM1       H3             -9.2513724209      -19.5546351843       -5.0190732410  IM1       71              0.0000000000
      5834       311  IM1       N1             -9.4017819963      -21.5643162831       -4.4865419402  IM1       71              0.0000000000
      5835       311  IM1       DN1            -9.4034175398      -21.5730256660       -4.4837448785  IM1       71              0.0000000000
      5836       311  IM1       C2             -9.8297170106      -22.7485398626       -5.0474343715  IM1       71              0.0000000000
      5837       311  IM1       DC2            -9.8233490122      -22.7431089024       -5.0449462629  IM1       71              0.0000000000
      5838       311  IM1       H4             -9.7759571584      -22.9273973937       -6.1142093533  IM1       71              0.0000000000
      5839       311  IM1       C3            -10.3119618168      -23.5171302489       -4.0096766674  IM1       71              0.0000000000
      5840       311  IM1       DC3           -10.3112005686      -23.5260300649       -4.0046244960  IM1       71              0.0000000000
      5841       311  IM1       H5            -10.7745112262      -24.4951883167       -4.0580446305  IM1       71              0.0000000000
      5842       311  IM1       C4             -9.6270389557      -21.6730796361       -3.1447019994  IM1       71              0.0000000000
      5843       311  IM1       DC4            -9.6221580368      -21.6819348499       -3.1541519097  IM1       71              0.0000000000
      5844       311  IM1       H6             -9.3669294839      -20.8745794688       -2.4498347132  IM1       71              0.0000000000
      5845       311  IM1       N2            -10.1383803376      -22.8619920175       -2.8236321231  IM1       71              0.0000000000
      5846       311  IM1       DN2           -10.1337256091      -22.8742546516       -2.8167422539  IM1       71              0.0000000000
      5847       311  IM1       H7            -10.4386506134      -23.1543799553       -1.9156965222  IM1       71              0.0000000000
      5848       311  IM1       LPN21         -10.2003705403      -22.9599388225       -2.5469307711  IM1       71              0.0000000000
      5849       312  IM1       C1             10.4696603037       23.1153755489        4.4396611489  IM1       72              0.0000000000
      5850       312  IM1       DC1            10.4568341324       23.1083873580        4.4397395290  IM1       72              0.0000000000
      5851       312  IM1       H1              9.9909356413       22.1406435485        4.6742698122  IM1       72              0.0000000000
      5852       312  IM1       H2             11.3786647116       23.2490414208        5.0642933790  IM1       72              0.0000000000
      5853       312  IM1       H3             10.7397608643       23.1533409984        3.3626628609  IM1       72              0.0000000000
      5854       312  IM1       N1              9.5582922961       24.1799641005        4.7220378126  IM1       72              0.0000000000
      5855       312  IM1       DN1             9.5562079560       24.1862261948        4.7180027337  IM1       72              0.0000000000
      5856       312  IM1       C2              8.2515028103       24.0556995333        5.1434779486  IM1       72              0.0000000000
      5857       312  IM1       DC2             8.2603581293       24.0529264288        5.1297747879  IM1       72              0.0000000000
      5858       312  IM1       H4              7.8262485222       23.0967955474        5.4128307584  IM1       72              0.0000000000
      5859       312  IM1       C3              7.7509874924       25.3381140244        5.2360859708  IM1       72              0.0000000000
      5860       312  IM1       DC3             7.7567272605       25.3456958038        5.2279109400  IM1       72              0.0000000000
      5861       312  IM1       H5              6.7803042504       25.6541598117        5.5977185245  IM1       72              0.0000000000
      5862       312  IM1       C4              9.7932040049       25.5132714461        4.5712776160  IM1       72              0.0000000000
      5863       312  IM1       DC4             9.7864631162       25.5093444643        4.5684270640  IM1       72              0.0000000000
      5864       312  IM1       H6             10.7627890588       25.8939023935        4.2501469495  IM1       72              0.0000000000
      5865       312  IM1       N2              8.7203138242       26.2391380204        4.8793089989  IM1       72              0.0000000000
      5866       312  IM1       DN2             8.7186644269       26.2475723586        4.8827580538  IM1       72              0.0000000000
      5867       312  IM1       H7              8.6573571613       27.2371389094        4.8848483355  IM1       72              0.0000000000
      5868       312  IM1       LPN21           8.7013134032       26.5384009411        4.8703263306  IM1       72              0.0000000000
      5869       313  IM1       C1            -20.3489329171       27.1715054077      -16.8982893107  IM1       73              0.0000000000
      5870       313  IM1       DC1           -20.3489566789       27.1579170508      -16.9048616316  IM1       73              0.0000000000
      5871       313  IM1       H1            -19.5868161889       26.4166516299      -17.1875899621  IM1       73              0.0000000000
      5872       313  IM1       H2            -20.9303440892       27.4918300966      -17.7891732226  IM1       73              0.0000000000
      5873       313  IM1       H3            -21.0372512697       26.7625942662      -16.1280098001  IM1       73              0.0000000000
      5874       313  IM1       N1            -19.7019911326       28.3037544847      -16.3380709155  IM1       73              0.0000000000
      5875       313  IM1       DN1           -19.7229310178       28.2967453103      -16.3409536627  IM1       73              0.0000000000
      5876       313  IM1       C2            -18.3480997086       28.5126740214      -16.2260538189  IM1       73              0.0000000000
      5877       313  IM1       DC2           -18.3817355231       28.5015360792      -16.2297001168  IM1       73              0.0000000000
      5878       313  IM1       H4            -17.6241611821       27.7830135923      -16.5672248435  IM1       73              0.0000000000
      5879       313  IM1       C3            -18.2004368429       29.7520444208      -15.6359616758  IM1       73              0.0000000000
      5880       313  IM1       DC3           -18.2080057053       29.7448169603      -15.6482575782  IM1       73              0.0000000000
      5881       313  IM1       H5            -17.2857605096       30.2694763215      -15.3741975960  IM1       73              0.0000000000
      5882       313  IM1       C4            -20.3151576499       29.4031756777      -15.8251730176  IM1       73              0.0000000000
      5883       313  IM1       DC4           -20.3181863013       29.3949436384      -15.8326914194  IM1       73              0.0000000000
      5884       313  IM1       H6            -21.4002933621       29.4935174426      -15.7759911760  IM1       73              0.0000000000
      5885       313  IM1       N2            -19.4355385996       30.3010493489      -15.4073017980  IM1       73              0.0000000000
      5886       313  IM1       DN2           -19.4412947543       30.2983282971      -15.4129316665  IM1       73              0.0000000000
      5887       313  IM1       H7            -19.6370130360       31.1854298981      -14.9862565560  IM1       73              0.0000000000
      5888       313  IM1       LPN21         -19.5012520437       30.5682968126      -15.2878843101  IM1       73              0.0000000000
      5889       314  IM1       C1              4.1243450472        1.8482433118       12.3453076977  IM1       74              0.0000000000
      5890       314  IM1       DC1             4.1257552919        1.8437752265       12.3209793445  IM1       74              0.0000000000
      5891       314  IM1       H1              4.2572911744        2.4212186667       11.4027868383  IM1       74              0.0000000000
      5892       314  IM1       H2              5.0542518474        1.8877020775       12.9519685164  IM1       74              0.0000000000
      5893       314  IM1       H3              3.2778015168        2.2712753186       12.9273119704  IM1       74              0.0000000000
      5894       314  IM1       N1              3.8456205031        0.4940769781       12.0282555385  IM1       74              0.0000000000
      5895       314  IM1       DN1             3.8465940481        0.4884932569       12.0122509353  IM1       74              0.0000000000
      5896       314  IM1       C2              3.7044928079       -0.0166141137       10.7638800690  IM1       74              0.0000000000
      5897       314  IM1       DC2             3.7039504744       -0.0124907483       10.7563922038  IM1       74              0.0000000000
      5898       314  IM1       H4              3.9480189842        0.5752747427        9.8902373600  IM1       74              0.0000000000
      5899       314  IM1       C3              3.3492212188       -1.3363404772       10.9188415429  IM1       74              0.0000000000
      5900       314  IM1       DC3             3.3491221408       -1.3416523144       10.9105582080  IM1       74              0.0000000000
      5901       314  IM1       H5              3.1756263533       -2.0685862121       10.1400154991  IM1       74              0.0000000000
      5902       314  IM1       C4              3.6043024505       -0.5307820915       12.8878382444  IM1       74              0.0000000000
      5903       314  IM1       DC4             3.6134417996       -0.5270255398       12.8603698253  IM1       74              0.0000000000
      5904       314  IM1       H6              3.6723543169       -0.3967735601       13.9674264330  IM1       74              0.0000000000
      5905       314  IM1       N2              3.3118580316       -1.6568647813       12.2371469853  IM1       74              0.0000000000
      5906       314  IM1       DN2             3.3109809076       -1.6667500515       12.2254645477  IM1       74              0.0000000000
      5907       314  IM1       H7              3.1073798290       -2.5472462541       12.6438526500  IM1       74              0.0000000000
      5908       314  IM1       LPN21           3.2510520444       -1.9235805986       12.3602944771  IM1       74              0.0000000000
      5909       315  IM1       C1            -29.3213296481       17.3996059883       32.2190678922  IM1       75              0.0000000000
      5910       315  IM1       DC1           -29.3213993838       17.3837121534       32.2184104870  IM1       75              0.0000000000
      5911       315  IM1       H1            -28.3831198531       16.8045573597       32.2197825841  IM1       75              0.0000000000
      5912       315  IM1       H2            -30.0680714430       16.9514345727       31.5292562700  IM1       75              0.0000000000
      5913       315  IM1       H3            -29.7424827000       17.4475846142       33.2460290210  IM1       75              0.0000000000
      5914       315  IM1       N1            -29.0385865822       18.7297854578       31.7907203068  IM1       75              0.0000000000
      5915       315  IM1       DN1           -29.0495516137       18.7216764888       31.7936072590  IM1       75              0.0000000000
      5916       315  IM1       C2            -27.8328040804       19.2023038561       31.3227326434  IM1       75              0.0000000000
      5917       315  IM1       DC2           -27.8528767420       19.1901607255       31.3306130753  IM1       75              0.0000000000
      5918       315  IM1       H4            -26.9463874999       18.5805221723       31.2994477978  IM1       75              0.0000000000
      5919       315  IM1       C3            -28.0467469356       20.5184268677       30.9695211785  IM1       75              0.0000000000
      5920       315  IM1       DC3           -28.0492521295       20.5094626506       30.9642246252  IM1       75              0.0000000000
      5921       315  IM1       H5            -27.3380819295       21.2354035221       30.5737593989  IM1       75              0.0000000000
      5922       315  IM1       C4            -29.9246537262       19.7583149585       31.6928879141  IM1       75              0.0000000000
      5923       315  IM1       DC4           -29.9208075589       19.7448345806       31.6886084117  IM1       75              0.0000000000
      5924       315  IM1       H6            -30.9624507348       19.6687374039       32.0139069651  IM1       75              0.0000000000
      5925       315  IM1       N2            -29.3576766793       20.8429794526       31.1804801867  IM1       75              0.0000000000
      5926       315  IM1       DN2           -29.3574923540       20.8360941489       31.1748050469  IM1       75              0.0000000000
      5927       315  IM1       H7            -29.7939929193       21.7309031437       31.0348105007  IM1       75              0.0000000000
      5928       315  IM1       LPN21         -29.4953379222       21.1036362872       31.1247361577  IM1       75              0.0000000000
      5929       316  IM1       C1             31.2193586213      -17.1635568919       -2.0612776609  IM1       76              0.0000000000
      5930       316  IM1       DC1            31.2290792120      -17.1596201242       -2.0812981802  IM1       76              0.0000000000
      5931       316  IM1       H1             31.8822175274      -16.8580704249       -2.8989035256  IM1       76              0.0000000000
      5932       316  IM1       H2             30.9342758375      -18.2321903388       -2.1664982099  IM1       76              0.0000000000
      5933       316  IM1       H3             31.7380264314      -16.9955862104       -1.0932432848  IM1       76              0.0000000000
      5934       316  IM1       N1             30.0242905392      -16.3969515274       -2.0825085521  IM1       76              0.0000000000
      5935       316  IM1       DN1            30.0346751929      -16.3930388233       -2.0920150357  IM1       76              0.0000000000
      5936       316  IM1       C2             29.6994109319      -15.4816262346       -3.0556165138  IM1       76              0.0000000000
      5937       316  IM1       DC2            29.7120223052      -15.4983283884       -3.0681074441  IM1       76              0.0000000000
      5938       316  IM1       H4             30.3949039530      -15.2205854784       -3.8436750022  IM1       76              0.0000000000
      5939       316  IM1       C3             28.5317689428      -14.8793134333       -2.6361999077  IM1       76              0.0000000000
      5940       316  IM1       DC3            28.5353192186      -14.8838437602       -2.6553980621  IM1       76              0.0000000000
      5941       316  IM1       H5             28.0115230759      -14.0374772049       -3.0761374061  IM1       76              0.0000000000
      5942       316  IM1       C4             29.0311807332      -16.3524122672       -1.1486903685  IM1       76              0.0000000000
      5943       316  IM1       DC4            29.0512881233      -16.3403563882       -1.1763859393  IM1       76              0.0000000000
      5944       316  IM1       H6             29.0235490749      -16.9816695498       -0.2587032731  IM1       76              0.0000000000
      5945       316  IM1       N2             28.1223598693      -15.4334293591       -1.4667232156  IM1       76              0.0000000000
      5946       316  IM1       DN2            28.1301284681      -15.4249747472       -1.4834653838  IM1       76              0.0000000000
      5947       316  IM1       H7             27.3286510233      -15.1693289018       -0.9187476535  IM1       76              0.0000000000
      5948       316  IM1       LPN21          27.8769158043      -15.3655264808       -1.3081470191  IM1       76              0.0000000000
      5949       317  IM1       C1            -30.5416814133      -10.5110487513      -22.4259664229  IM1       77              0.0000000000
      5950       317  IM1       DC1           -30.5413035248      -10.4958498642      -22.4160762123  IM1       77              0.0000000000
      5951       317  IM1       H1            -30.7671789446       -9.4309182457      -22.5555424791  IM1       77              0.0000000000
      5952       317  IM1       H2            -30.5768506554      -10.7978508473      -21.3531995874  IM1       77              0.0000000000
      5953       317  IM1       H3            -31.2838212594      -11.1161086590      -22.9893951737  IM1       77              0.0000000000
      5954       317  IM1       N1            -29.2430448129      -10.7621246444      -22.9454981734  IM1       77              0.0000000000
      5955       317  IM1       DN1           -29.2519407542      -10.7661296936      -22.9383788950  IM1       77              0.0000000000
      5956       317  IM1       C2            -28.3734158022       -9.8177517975      -23.4423373777  IM1       77              0.0000000000
      5957       317  IM1       DC2           -28.3970361326       -9.8220105478      -23.4241018664  IM1       77              0.0000000000
      5958       317  IM1       H4            -28.6456252514       -8.7737963342      -23.5369312919  IM1       77              0.0000000000
      5959       317  IM1       C3            -27.2230504791      -10.4962386546      -23.7839104591  IM1       77              0.0000000000
      5960       317  IM1       DC3           -27.2336286714      -10.4925249146      -23.7736939539  IM1       77              0.0000000000
      5961       317  IM1       H5            -26.3086984638      -10.1038922643      -24.2115945739  IM1       77              0.0000000000
      5962       317  IM1       C4            -28.5954827756      -11.9559138585      -22.9967910173  IM1       77              0.0000000000
      5963       317  IM1       DC4           -28.6070512678      -11.9460271967      -22.9963238344  IM1       77              0.0000000000
      5964       317  IM1       H6            -29.0547137418      -12.8857587867      -22.6612387401  IM1       77              0.0000000000
      5965       317  IM1       N2            -27.3729534574      -11.8223250869      -23.4968632495  IM1       77              0.0000000000
      5966       317  IM1       DN2           -27.3762871721      -11.8160604096      -23.4964256292  IM1       77              0.0000000000
      5967       317  IM1       H7            -26.7051892924      -12.5539279283      -23.6341523688  IM1       77              0.0000000000
      5968       317  IM1       LPN21         -27.1741090975      -12.0434639353      -23.5363414746  IM1       77              0.0000000000
      5969       318  IM1       C1             14.1119324141       -1.6329080129       -8.0534318369  IM1       78              0.0000000000
      5970       318  IM1       DC1            14.1362450034       -1.6393438985       -8.0447042312  IM1       78              0.0000000000
      5971       318  IM1       H1             14.5005607566       -1.6960405416       -7.0145366080  IM1       78              0.0000000000
      5972       318  IM1       H2             14.2213317488       -0.6057635660       -8.4624881549  IM1       78              0.0000000000
      5973       318  IM1       H3             14.6308104713       -2.3577928707       -8.7164767108  IM1       78              0.0000000000
      5974       318  IM1       N1             12.7378333224       -1.9541739211       -8.0611611038  IM1       78              0.0000000000
      5975       318  IM1       DN1            12.7546776697       -1.9517563547       -8.0646805904  IM1       78              0.0000000000
      5976       318  IM1       C2             12.0074688873       -2.4612009617       -7.0105463555  IM1       78              0.0000000000
      5977       318  IM1       DC2            12.0296713030       -2.4441833276       -7.0118940279  IM1       78              0.0000000000
      5978       318  IM1       H4             12.4417705899       -2.6262990518       -6.0322756099  IM1       78              0.0000000000
      5979       318  IM1       C3             10.7542514307       -2.7156997125       -7.5155548941  IM1       78              0.0000000000
      5980       318  IM1       DC3            10.7696732221       -2.7160407003       -7.5011950755  IM1       78              0.0000000000
      5981       318  IM1       H5              9.8916338626       -3.1395213990       -7.0164004999  IM1       78              0.0000000000
      5982       318  IM1       C4             11.9171884326       -1.9149397409       -9.1417659080  IM1       78              0.0000000000
      5983       318  IM1       DC4            11.9351534995       -1.9232858276       -9.1304357114  IM1       78              0.0000000000
      5984       318  IM1       H6             12.2444270715       -1.5820804798      -10.1267631595  IM1       78              0.0000000000
      5985       318  IM1       N2             10.7120000398       -2.3609814483       -8.8339275754  IM1       78              0.0000000000
      5986       318  IM1       DN2            10.7261792908       -2.3635704030       -8.8214885251  IM1       78              0.0000000000
      5987       318  IM1       H7              9.9385826661       -2.4592295393       -9.4601646542  IM1       78              0.0000000000
      5988       318  IM1       LPN21          10.4792967053       -2.3779999393       -9.0224999199  IM1       78              0.0000000000
      5989       319  IM1       C1             18.7663395628       34.6892302768       -4.3671073304  IM1       79              0.0000000000
      5990       319  IM1       DC1            18.7709316189       34.6839850478       -4.3874220214  IM1       79              0.0000000000
      5991       319  IM1       H1             19.2794700928       34.1709814002       -5.2052219771  IM1       79              0.0000000000
      5992       319  IM1       H2             18.4001143834       35.6830017809       -4.7026938577  IM1       79              0.0000000000
      5993       319  IM1       H3             17.9205464415       34.0687168247       -4.0011591754  IM1       79              0.0000000000
      5994       319  IM1       N1             19.6866986618       34.8815438557       -3.2889997000  IM1       79              0.0000000000
      5995       319  IM1       DN1            19.6834995914       34.8790445561       -3.3001893378  IM1       79              0.0000000000
      5996       319  IM1       C2             21.0217713068       34.5532968237       -3.3044284632  IM1       79              0.0000000000
      5997       319  IM1       DC2            21.0074411299       34.5530477442       -3.3144550167  IM1       79              0.0000000000
      5998       319  IM1       H4             21.4640293165       34.0523736649       -4.1567035607  IM1       79              0.0000000000
      5999       319  IM1       C3             21.5370615078       34.9574252956       -2.0914954644  IM1       79              0.0000000000
      6000       319  IM1       DC3            21.5419054928       34.9569377222       -2.0948506899  IM1       79              0.0000000000
      6001       319  IM1       H5             22.5501587093       34.8605645595       -1.7211698533  IM1       79              0.0000000000
      6002       319  IM1       C4             19.4495543433       35.4601393692       -2.0792101971  IM1       79              0.0000000000
      6003       319  IM1       DC4            19.4598277819       35.4488442025       -2.0965558817  IM1       79              0.0000000000
      6004       319  IM1       H6             18.4603424484       35.8117823205       -1.7861111323  IM1       79              0.0000000000
      6005       319  IM1       N2             20.5554106767       35.5324882265       -1.3433645721  IM1       79              0.0000000000
      6006       319  IM1       DN2            20.5647245708       35.5314683021       -1.3476663835  IM1       79              0.0000000000
      6007       319  IM1       H7             20.6313016952       35.9239715567       -0.4263142161  IM1       79              0.0000000000
      6008       319  IM1       LPN21          20.5783067291       35.6521098381       -1.0691995838  IM1       79              0.0000000000
      6009       320  IM1       C1             -1.8603630197      -30.3897944051      -28.7866135178  IM1       80              0.0000000000
      6010       320  IM1       DC1            -1.8659654207      -30.3819722018      -28.7870126285  IM1       80              0.0000000000
      6011       320  IM1       H1             -1.8331664699      -29.8077322750      -27.8406827461  IM1       80              0.0000000000
      6012       320  IM1       H2             -0.8505832444      -30.4000841344      -29.2498196564  IM1       80              0.0000000000
      6013       320  IM1       H3             -2.1959092803      -31.4281807472      -28.5780865160  IM1       80              0.0000000000
      6014       320  IM1       N1             -2.7783611224      -29.7940577242      -29.6929254458  IM1       80              0.0000000000
      6015       320  IM1       DN1            -2.7841837965      -29.7914960789      -29.6971090415  IM1       80              0.0000000000
      6016       320  IM1       C2             -3.4664174197      -28.6167472007      -29.4958296801  IM1       80              0.0000000000
      6017       320  IM1       DC2            -3.4496143713      -28.6115019938      -29.4884267883  IM1       80              0.0000000000
      6018       320  IM1       H4             -3.4473838940      -28.1201571567      -28.5335796850  IM1       80              0.0000000000
      6019       320  IM1       C3             -4.1289326617      -28.3630985989      -30.6835342977  IM1       80              0.0000000000
      6020       320  IM1       DC3            -4.1170970924      -28.3539435788      -30.6732583583  IM1       80              0.0000000000
      6021       320  IM1       H5             -4.8072950013      -27.5519660989      -30.9175804550  IM1       80              0.0000000000
      6022       320  IM1       C4             -3.0542153752      -30.2027181508      -30.9619480767  IM1       80              0.0000000000
      6023       320  IM1       DC4            -3.0542059358      -30.2022171167      -30.9493686295  IM1       80              0.0000000000
      6024       320  IM1       H6             -2.6377617297      -31.1162069551      -31.3864531610  IM1       80              0.0000000000
      6025       320  IM1       N2             -3.8834947147      -29.3676226795      -31.5723309267  IM1       80              0.0000000000
      6026       320  IM1       DN2            -3.8819719945      -29.3661055072      -31.5647036838  IM1       80              0.0000000000
      6027       320  IM1       H7             -4.2685327734      -29.4715033721      -32.4893666375  IM1       80              0.0000000000
      6028       320  IM1       LPN21          -3.9917370848      -29.3990866633      -31.8503482049  IM1       80              0.0000000000
      6029       321  IM1       C1            -11.0070331352      -14.2587410816      -33.7539987507  IM1       81              0.0000000000
      6030       321  IM1       DC1           -11.0272223031      -14.2485942672      -33.7498071952  IM1       81              0.0000000000
      6031       321  IM1       H1            -11.9375613766      -13.9503826932      -34.2768307470  IM1       81              0.0000000000
      6032       321  IM1       H2            -10.1255042639      -13.9875887294      -34.3734374098  IM1       81              0.0000000000
      6033       321  IM1       H3            -10.9414023432      -13.7680427211      -32.7593989726  IM1       81              0.0000000000
      6034       321  IM1       N1            -11.0002707993      -15.6724672494      -33.5692848948  IM1       81              0.0000000000
      6035       321  IM1       DN1           -11.0097906127      -15.6595323488      -33.5622173556  IM1       81              0.0000000000
      6036       321  IM1       C2            -11.8807965735      -16.5460016513      -34.1443883409  IM1       81              0.0000000000
      6037       321  IM1       DC2           -11.8802037198      -16.5243461309      -34.1317820127  IM1       81              0.0000000000
      6038       321  IM1       H4            -12.8114465426      -16.2017468790      -34.5782872770  IM1       81              0.0000000000
      6039       321  IM1       C3            -11.4155546863      -17.8150114014      -33.8929125970  IM1       81              0.0000000000
      6040       321  IM1       DC3           -11.4289125250      -17.8114314090      -33.8791144457  IM1       81              0.0000000000
      6041       321  IM1       H5            -11.8505119877      -18.7605292230      -34.1924074968  IM1       81              0.0000000000
      6042       321  IM1       C4            -10.0634150717      -16.4399212226      -32.9533452523  IM1       81              0.0000000000
      6043       321  IM1       DC4           -10.0942250103      -16.4343384416      -32.9481582375  IM1       81              0.0000000000
      6044       321  IM1       H6             -9.1976910531      -16.0089735335      -32.4504476356  IM1       81              0.0000000000
      6045       321  IM1       N2            -10.3119354399      -17.7372986393      -33.1055936639  IM1       81              0.0000000000
      6046       321  IM1       DN2           -10.3239324241      -17.7404969550      -33.1016378077  IM1       81              0.0000000000
      6047       321  IM1       H7             -9.7431454636      -18.4958831365      -32.7877453928  IM1       81              0.0000000000
      6048       321  IM1       LPN21         -10.1534816648      -17.9632274755      -32.9879137501  IM1       81              0.0000000000
      6049       322  IM1       C1            -17.8396986218       31.9879793580      -26.5806736951  IM1       82              0.0000000000
      6050       322  IM1       DC1           -17.8424751997       31.9703804874      -26.5901831093  IM1       82              0.0000000000
      6051       322  IM1       H1            -18.6757795201       31.5403354668      -27.1593831892  IM1       82              0.0000000000
      6052       322  IM1       H2            -17.3562425975       32.7952083595      -27.1714127337  IM1       82              0.0000000000
      6053       322  IM1       H3            -18.2420528547       32.4079542080      -25.6340728301  IM1       82              0.0000000000
      6054       322  IM1       N1            -16.8637968349       30.9877786692      -26.2709586709  IM1       82              0.0000000000
      6055       322  IM1       DN1           -16.8664589623       30.9779318147      -26.2735050979  IM1       82              0.0000000000
      6056       322  IM1       C2            -16.9269575374       29.6615351645      -26.6418014384  IM1       82              0.0000000000
      6057       322  IM1       DC2           -16.9332958371       29.6713530157      -26.6447236236  IM1       82              0.0000000000
      6058       322  IM1       H4            -17.7637381283       29.2551091976      -27.1963329320  IM1       82              0.0000000000
      6059       322  IM1       C3            -15.7750018572       29.0746832366      -26.1652298044  IM1       82              0.0000000000
      6060       322  IM1       DC3           -15.7682444215       29.0688828424      -26.1673168907  IM1       82              0.0000000000
      6061       322  IM1       H5            -15.4526759347       28.0453565082      -26.2626027254  IM1       82              0.0000000000
      6062       322  IM1       C4            -15.6905756526       31.1463347490      -25.5913121645  IM1       82              0.0000000000
      6063       322  IM1       DC4           -15.7041894758       31.1308893338      -25.6025938695  IM1       82              0.0000000000
      6064       322  IM1       H6            -15.3810904535       32.1081170405      -25.1822965943  IM1       82              0.0000000000
      6065       322  IM1       N2            -15.0204409889       29.9962868716      -25.5054694327  IM1       82              0.0000000000
      6066       322  IM1       DN2           -15.0204113700       29.9816680987      -25.5021360257  IM1       82              0.0000000000
      6067       322  IM1       H7            -14.1297967612       29.8582229222      -25.0722360009  IM1       82              0.0000000000
      6068       322  IM1       LPN21         -14.7572817971       29.9541411098      -25.3677342718  IM1       82              0.0000000000
      6069       323  IM1       C1             36.7164504824       -6.6633930874      -17.9525930439  IM1       83              0.0000000000
      6070       323  IM1       DC1            36.7199566691       -6.6654721993      -17.9495895918  IM1       83              0.0000000000
      6071       323  IM1       H1             36.6482633702       -7.6007909002      -18.5450091642  IM1       83              0.0000000000
      6072       323  IM1       H2             35.7848727463       -6.5342447192      -17.3611502139  IM1       83              0.0000000000
      6073       323  IM1       H3             37.6068140573       -6.6732748098      -17.2881563984  IM1       83              0.0000000000
      6074       323  IM1       N1             36.8088417048       -5.5644229951      -18.8440599172  IM1       83              0.0000000000
      6075       323  IM1       DN1            36.8109993817       -5.5570785616      -18.8366231330  IM1       83              0.0000000000
      6076       323  IM1       C2             36.8352088972       -5.6013367541      -20.2234846456  IM1       83              0.0000000000
      6077       323  IM1       DC2            36.8411099911       -5.5956781913      -20.2057204755  IM1       83              0.0000000000
      6078       323  IM1       H4             36.9521310514       -6.5261737855      -20.7747510742  IM1       83              0.0000000000
      6079       323  IM1       C3             36.6590491371       -4.3051705994      -20.6399360862  IM1       83              0.0000000000
      6080       323  IM1       DC3            36.6726228479       -4.3020566694      -20.6245285982  IM1       83              0.0000000000
      6081       323  IM1       H5             36.6815854607       -3.9027589412      -21.6451455029  IM1       83              0.0000000000
      6082       323  IM1       C4             36.6396475666       -4.2696370643      -18.4893970644  IM1       83              0.0000000000
      6083       323  IM1       DC4            36.6424710527       -4.2734505503      -18.4921350232  IM1       83              0.0000000000
      6084       323  IM1       H6             36.5389493578       -3.9375813403      -17.4561019144  IM1       83              0.0000000000
      6085       323  IM1       N2             36.5794530453       -3.4901035599      -19.5477194279  IM1       83              0.0000000000
      6086       323  IM1       DN2            36.5572277997       -3.4755528854      -19.5520318437  IM1       83              0.0000000000
      6087       323  IM1       H7             36.6565821326       -2.4931256408      -19.5384386589  IM1       83              0.0000000000
      6088       323  IM1       LPN21          36.5532595980       -3.1913178481      -19.5413161682  IM1       83              0.0000000000
      6089       324  IM1       C1              1.2534346217       35.7100483078      -10.0240997357  IM1       84              0.0000000000
      6090       324  IM1       DC1             1.2640721141       35.7289445707      -10.0374736545  IM1       84              0.0000000000
      6091       324  IM1       H1              2.0205385158       35.9974572927      -10.7746120215  IM1       84              0.0000000000
      6092       324  IM1       H2              1.1983505403       34.6019392206       -9.9659533994  IM1       84              0.0000000000
      6093       324  IM1       H3              1.4844918099       36.1503856868       -9.0306025948  IM1       84              0.0000000000
      6094       324  IM1       N1             -0.0001388656       36.1919847099      -10.4565611929  IM1       84              0.0000000000
      6095       324  IM1       DN1             0.0034736509       36.2026703579      -10.4535046433  IM1       84              0.0000000000
      6096       324  IM1       C2             -0.2814483046       36.3755939129      -11.7849285468  IM1       84              0.0000000000
      6097       324  IM1       DC2            -0.2698214518       36.3731402312      -11.7734015955  IM1       84              0.0000000000
      6098       324  IM1       H4              0.5037837771       36.5308585800      -12.5144437701  IM1       84              0.0000000000
      6099       324  IM1       C3             -1.6358251066       36.2354515535      -11.9159284347  IM1       84              0.0000000000
      6100       324  IM1       DC3            -1.6343830663       36.2501755286      -11.9182341499  IM1       84              0.0000000000
      6101       324  IM1       H5             -2.2247010184       36.3693106812      -12.8149255952  IM1       84              0.0000000000
      6102       324  IM1       C4             -1.1829609805       35.9416014582       -9.8354134157  IM1       84              0.0000000000
      6103       324  IM1       DC4            -1.1708437513       35.9504472299       -9.8472411333  IM1       84              0.0000000000
      6104       324  IM1       H6             -1.2486427952       35.7368595381       -8.7668318113  IM1       84              0.0000000000
      6105       324  IM1       N2             -2.1929520834       35.9935408603      -10.6939674808  IM1       84              0.0000000000
      6106       324  IM1       DN2            -2.1914047300       36.0034485457      -10.7002452039  IM1       84              0.0000000000
      6107       324  IM1       H7             -3.1645385217       35.8979487394      -10.4774451047  IM1       84              0.0000000000
      6108       324  IM1       LPN21          -2.4831680202       35.9583514062      -10.6266145870  IM1       84              0.0000000000
      6109       325  IM1       C1             26.5031275200       27.3369773979      -15.0534248078  IM1       85              0.0000000000
      6110       325  IM1       DC1            26.5107252913       27.3579412150      -15.0508231759  IM1       85              0.0000000000
      6111       325  IM1       H1             26.2252560341       27.8023425459      -14.0836084762  IM1       85              0.0000000000
      6112       325  IM1       H2             26.9533156226       28.0882432847      -15.7369825885  IM1       85              0.0000000000
      6113       325  IM1       H3             27.2099826291       26.4980821848      -14.8775507694  IM1       85              0.0000000000
      6114       325  IM1       N1             25.3393862749       26.8146794850      -15.6606016711  IM1       85              0.0000000000
      6115       325  IM1       DN1            25.3543713620       26.8228412833      -15.6615777127  IM1       85              0.0000000000
      6116       325  IM1       C2             24.0504999803       26.9239745926      -15.1944428120  IM1       85              0.0000000000
      6117       325  IM1       DC2            24.0762087939       26.9390266844      -15.2000662926  IM1       85              0.0000000000
      6118       325  IM1       H4             23.8273836138       27.3811113926      -14.2383392431  IM1       85              0.0000000000
      6119       325  IM1       C3             23.2578684194       26.2696664632      -16.1119756876  IM1       85              0.0000000000
      6120       325  IM1       DC3            23.2602573316       26.2841751430      -16.1067857242  IM1       85              0.0000000000
      6121       325  IM1       H5             22.1855010330       26.1186993757      -16.1007450280  IM1       85              0.0000000000
      6122       325  IM1       C4             25.2807278578       26.1329657168      -16.8314989043  IM1       85              0.0000000000
      6123       325  IM1       DC4            25.2846413448       26.1489243124      -16.8220898031  IM1       85              0.0000000000
      6124       325  IM1       H6             26.1641299650       25.9212738501      -17.4339001581  IM1       85              0.0000000000
      6125       325  IM1       N2             24.0332355408       25.8085896262      -17.1353211423  IM1       85              0.0000000000
      6126       325  IM1       DN2            24.0348497955       25.8219670995      -17.1295045915  IM1       85              0.0000000000
      6127       325  IM1       H7             23.7302744310       25.3140947399      -17.9499924706  IM1       85              0.0000000000
      6128       325  IM1       LPN21          23.9454658623       25.6624859936      -17.3822021096  IM1       85              0.0000000000
      6129       326  IM1       C1              8.1904728050       -1.0473750796        9.4496795313  IM1       86              0.0000000000
      6130       326  IM1       DC1             8.1850053945       -1.0399518362        9.4398292680  IM1       86              0.0000000000
      6131       326  IM1       H1              7.5123726392       -0.2587157968        9.8402146781  IM1       86              0.0000000000
      6132       326  IM1       H2              8.6094546699       -0.7186005609        8.4746500372  IM1       86              0.0000000000
      6133       326  IM1       H3              9.0201257199       -1.2207613070       10.1679651691  IM1       86              0.0000000000
      6134       326  IM1       N1              7.4661421827       -2.2693398216        9.2785142412  IM1       86              0.0000000000
      6135       326  IM1       DN1             7.4811791773       -2.2715729165        9.2699218642  IM1       86              0.0000000000
      6136       326  IM1       C2              6.1218947739       -2.4109290763        9.4842057833  IM1       86              0.0000000000
      6137       326  IM1       DC2             6.1484173358       -2.4075753237        9.4801132237  IM1       86              0.0000000000
      6138       326  IM1       H4              5.5499755898       -1.5436335898        9.7901403939  IM1       86              0.0000000000
      6139       326  IM1       C3              5.8006297115       -3.7157373131        9.1877795946  IM1       86              0.0000000000
      6140       326  IM1       DC3             5.8020358871       -3.7098204112        9.1727120535  IM1       86              0.0000000000
      6141       326  IM1       H5              4.8359420330       -4.2050586007        9.2409901238  IM1       86              0.0000000000
      6142       326  IM1       C4              7.9130460451       -3.4840398777        8.8586820512  IM1       86              0.0000000000
      6143       326  IM1       DC4             7.9172189241       -3.4762296186        8.8512002616  IM1       86              0.0000000000
      6144       326  IM1       H6              8.9607412636       -3.6682692869        8.6209968518  IM1       86              0.0000000000
      6145       326  IM1       N2              6.9239347348       -4.3658788809        8.7625722182  IM1       86              0.0000000000
      6146       326  IM1       DN2             6.9255497422       -4.3594870889        8.7525829974  IM1       86              0.0000000000
      6147       326  IM1       H7              6.9999722274       -5.3281193893        8.5012075219  IM1       86              0.0000000000
      6148       326  IM1       LPN21           6.9487785139       -4.6489070618        8.6662506970  IM1       86              0.0000000000
      6149       327  IM1       C1            -30.1223936107       -2.7403644661        2.5522701475  IM1       87              0.0000000000
      6150       327  IM1       DC1           -30.1265722750       -2.7401873810        2.5529353589  IM1       87              0.0000000000
      6151       327  IM1       H1            -30.6356634144       -2.5135742612        3.5111451717  IM1       87              0.0000000000
      6152       327  IM1       H2            -29.9090809347       -1.7968105101        2.0058960680  IM1       87              0.0000000000
      6153       327  IM1       H3            -29.1825698004       -3.2964510693        2.7567692806  IM1       87              0.0000000000
      6154       327  IM1       N1            -30.9704354830       -3.5480951451        1.7696773334  IM1       87              0.0000000000
      6155       327  IM1       DN1           -30.9660539028       -3.5479312110        1.7624493968  IM1       87              0.0000000000
      6156       327  IM1       C2            -32.1912443586       -4.0446935049        2.1550361862  IM1       87              0.0000000000
      6157       327  IM1       DC2           -32.1763487137       -4.0336638451        2.1513343513  IM1       87              0.0000000000
      6158       327  IM1       H4            -32.6255181652       -3.8043931141        3.1176113692  IM1       87              0.0000000000
      6159       327  IM1       C3            -32.6428267014       -4.7930329090        1.0910376415  IM1       87              0.0000000000
      6160       327  IM1       DC3           -32.6450817909       -4.7884565637        1.0900150668  IM1       87              0.0000000000
      6161       327  IM1       H5            -33.5798161622       -5.3284877130        1.0003298516  IM1       87              0.0000000000
      6162       327  IM1       C4            -30.7339645669       -3.9994812755        0.5109866765  IM1       87              0.0000000000
      6163       327  IM1       DC4           -30.7316106099       -3.9951360717        0.5163792239  IM1       87              0.0000000000
      6164       327  IM1       H6            -29.8186282296       -3.7654667631       -0.0326093111  IM1       87              0.0000000000
      6165       327  IM1       N2            -31.7424260245       -4.7330835731        0.0649903650  IM1       87              0.0000000000
      6166       327  IM1       DN2           -31.7434344114       -4.7276535600        0.0652913711  IM1       87              0.0000000000
      6167       327  IM1       H7            -31.8040117167       -5.1899568286       -0.8224069704  IM1       87              0.0000000000
      6168       327  IM1       LPN21         -31.7623601733       -4.8576243912       -0.2072084857  IM1       87              0.0000000000
      6169       328  IM1       C1            -30.2078764395       -1.9735595783       12.7619243561  IM1       88              0.0000000000
      6170       328  IM1       DC1           -30.2134275781       -1.9740155868       12.7590872887  IM1       88              0.0000000000
      6171       328  IM1       H1            -29.5670190863       -2.6818147924       13.3293725084  IM1       88              0.0000000000
      6172       328  IM1       H2            -31.1378749537       -2.4943256888       12.4485134090  IM1       88              0.0000000000
      6173       328  IM1       H3            -30.4357535528       -1.0950342497       13.4026944167  IM1       88              0.0000000000
      6174       328  IM1       N1            -29.5146162880       -1.5178931056       11.5990620071  IM1       88              0.0000000000
      6175       328  IM1       DN1           -29.5198029240       -1.5181645791       11.5972394668  IM1       88              0.0000000000
      6176       328  IM1       C2            -28.2685369877       -1.9328515169       11.1939508480  IM1       88              0.0000000000
      6177       328  IM1       DC2           -28.2811480376       -1.9297122201       11.2008959828  IM1       88              0.0000000000
      6178       328  IM1       H4            -27.6987843769       -2.6553986163       11.7650871290  IM1       88              0.0000000000
      6179       328  IM1       C3            -27.9485905641       -1.1707422164       10.0946337018  IM1       88              0.0000000000
      6180       328  IM1       DC3           -27.9469440863       -1.1634380579       10.0992758817  IM1       88              0.0000000000
      6181       328  IM1       H5            -27.0182531672       -1.1669539396        9.5402448699  IM1       88              0.0000000000
      6182       328  IM1       C4            -29.9080954105       -0.5574508172       10.7145364637  IM1       88              0.0000000000
      6183       328  IM1       DC4           -29.9063845077       -0.5682610603       10.7208257479  IM1       88              0.0000000000
      6184       328  IM1       H6            -30.8787397219       -0.0656048598       10.7780752294  IM1       88              0.0000000000
      6185       328  IM1       N2            -28.9783989921       -0.3335997251        9.7907165415  IM1       88              0.0000000000
      6186       328  IM1       DN2           -28.9758913218       -0.3363209794        9.7889749010  IM1       88              0.0000000000
      6187       328  IM1       H7            -29.0282402689        0.3207343382        9.0361552247  IM1       88              0.0000000000
      6188       328  IM1       LPN21         -28.9969204406       -0.1378004110        9.5641782786  IM1       88              0.0000000000
      6189       329  IM1       C1            -23.7628382200       -1.5797298275       19.3113001715  IM1       89              0.0000000000
      6190       329  IM1       DC1           -23.7929252633       -1.5586663965       19.3245646557  IM1       89              0.0000000000
      6191       329  IM1       H1            -22.9458073426       -1.5196875060       20.0617510130  IM1       89              0.0000000000
      6192       329  IM1       H2            -23.4265600474       -1.0410007593       18.3997032311  IM1       89              0.0000000000
      6193       329  IM1       H3            -23.9637008540       -2.6464325322       19.0744024226  IM1       89              0.0000000000
      6194       329  IM1       N1            -24.9536535602       -0.9769077790       19.8262433272  IM1       89              0.0000000000
      6195       329  IM1       DN1           -24.9775609896       -0.9652352517       19.8343449452  IM1       89              0.0000000000
      6196       329  IM1       C2            -25.0779854733       -0.3323106048       21.0350681660  IM1       89              0.0000000000
      6197       329  IM1       DC2           -25.0818992238       -0.3428311053       21.0374699918  IM1       89              0.0000000000
      6198       329  IM1       H4            -24.2402837120       -0.2628712449       21.7179465846  IM1       89              0.0000000000
      6199       329  IM1       C3            -26.3648158121        0.1554184781       21.0785015740  IM1       89              0.0000000000
      6200       329  IM1       DC3           -26.3749932641        0.1477665998       21.0740136340  IM1       89              0.0000000000
      6201       329  IM1       H5            -26.8698163190        0.6424863223       21.9035036366  IM1       89              0.0000000000
      6202       329  IM1       C4            -26.1630366225       -0.8668315239       19.2056240257  IM1       89              0.0000000000
      6203       329  IM1       DC4           -26.1629729082       -0.8632003360       19.2048209671  IM1       89              0.0000000000
      6204       329  IM1       H6            -26.3463470440       -1.2896682285       18.2178455026  IM1       89              0.0000000000
      6205       329  IM1       N2            -27.0350263037       -0.1817145894       19.9391836305  IM1       89              0.0000000000
      6206       329  IM1       DN2           -27.0410262439       -0.1785598732       19.9396512087  IM1       89              0.0000000000
      6207       329  IM1       H7            -27.9840429508        0.0303023826       19.7059108135  IM1       89              0.0000000000
      6208       329  IM1       LPN21         -27.3184760151       -0.1177805238       19.8645599319  IM1       89              0.0000000000
      6209       330  IM1       C1             18.0368833206        2.9688445762      -10.0697713990  IM1       90              0.0000000000
      6210       330  IM1       DC1            18.0253890903        2.9688766656      -10.0664760023  IM1       90              0.0000000000
      6211       330  IM1       H1             18.4870366274        3.9804196991      -10.1614162180  IM1       90              0.0000000000
      6212       330  IM1       H2             18.3340700216        2.3485720664      -10.9422753124  IM1       90              0.0000000000
      6213       330  IM1       H3             18.3963873127        2.4911590308       -9.1333450007  IM1       90              0.0000000000
      6214       330  IM1       N1             16.6164733135        3.0801701364      -10.0303534201  IM1       90              0.0000000000
      6215       330  IM1       DN1            16.6130252173        3.0631244006      -10.0283283122  IM1       90              0.0000000000
      6216       330  IM1       C2             15.8630605143        4.2307033263      -10.0894605297  IM1       90              0.0000000000
      6217       330  IM1       DC2            15.8929378429        4.2202744360      -10.0835452857  IM1       90              0.0000000000
      6218       330  IM1       H4             16.3226002538        5.2078842462      -10.1721023928  IM1       90              0.0000000000
      6219       330  IM1       C3             14.5402314700        3.8311665013      -10.0615591977  IM1       90              0.0000000000
      6220       330  IM1       DC3            14.5670951591        3.8328179470      -10.0380363846  IM1       90              0.0000000000
      6221       330  IM1       H5             13.6380312991        4.4294815674      -10.0922664170  IM1       90              0.0000000000
      6222       330  IM1       C4             15.7366842445        2.0538434292       -9.9449238722  IM1       90              0.0000000000
      6223       330  IM1       DC4            15.7486215296        2.0419870994       -9.9440230368  IM1       90              0.0000000000
      6224       330  IM1       H6             16.0475720665        1.0165172637       -9.8208142899  IM1       90              0.0000000000
      6225       330  IM1       N2             14.4859465450        2.4742168718       -9.9343999081  IM1       90              0.0000000000
      6226       330  IM1       DN2            14.5011506663        2.4733106541       -9.9221208842  IM1       90              0.0000000000
      6227       330  IM1       H7             13.6662003522        1.9025465074       -9.8996267295  IM1       90              0.0000000000
      6228       330  IM1       LPN21          14.2431383915        2.2998962697       -9.9087771006  IM1       90              0.0000000000
      6229       331  IM1       C1             19.9547614577      -27.2167238009        5.3845399684  IM1       91              0.0000000000
      6230       331  IM1       DC1            19.9467565069      -27.2213791513        5.3719041132  IM1       91              0.0000000000
      6231       331  IM1       H1             19.1093155030      -27.8145666140        5.7871888333  IM1       91              0.0000000000
      6232       331  IM1       H2             20.7493229206      -27.8948718150        5.0062433249  IM1       91              0.0000000000
      6233       331  IM1       H3             19.5864840594      -26.5414539983        4.5828520902  IM1       91              0.0000000000
      6234       331  IM1       N1             20.5070065148      -26.4398278802        6.4200616389  IM1       91              0.0000000000
      6235       331  IM1       DN1            20.5061136460      -26.4391975619        6.4015278619  IM1       91              0.0000000000
      6236       331  IM1       C2             20.0544295114      -26.4079687176        7.7100555422  IM1       91              0.0000000000
      6237       331  IM1       DC2            20.0585184662      -26.4102319401        7.6795051951  IM1       91              0.0000000000
      6238       331  IM1       H4             19.2089843560      -27.0168873962        8.0055712483  IM1       91              0.0000000000
      6239       331  IM1       C3             20.8648616045      -25.5227205691        8.3843094629  IM1       91              0.0000000000
      6240       331  IM1       DC3            20.8612064078      -25.5203040485        8.3757037616  IM1       91              0.0000000000
      6241       331  IM1       H5             20.8383832692      -25.2475097955        9.4314230803  IM1       91              0.0000000000
      6242       331  IM1       C4             21.5521442541      -25.5770820589        6.3449246113  IM1       91              0.0000000000
      6243       331  IM1       DC4            21.5393872240      -25.5800137161        6.3396316605  IM1       91              0.0000000000
      6244       331  IM1       H6             22.1140497518      -25.4203697293        5.4241621786  IM1       91              0.0000000000
      6245       331  IM1       N2             21.7732292518      -24.9879868476        7.5134953455  IM1       91              0.0000000000
      6246       331  IM1       DN2            21.7684862678      -24.9856068085        7.5103075450  IM1       91              0.0000000000
      6247       331  IM1       H7             22.5046694116      -24.3384788272        7.7211841127  IM1       91              0.0000000000
      6248       331  IM1       LPN21          21.9822867344      -24.7799882694        7.5685549532  IM1       91              0.0000000000
      6249       332  IM1       C1              4.2481943539      -27.9006114296      -15.6832131559  IM1       92              0.0000000000
      6250       332  IM1       DC1             4.2651654085      -27.9071159028      -15.6760958395  IM1       92              0.0000000000
      6251       332  IM1       H1              4.6725471055      -26.8901474634      -15.5009816659  IM1       92              0.0000000000
      6252       332  IM1       H2              4.5081816680      -28.2382471167      -16.7092393443  IM1       92              0.0000000000
      6253       332  IM1       H3              4.6253333109      -28.6135331787      -14.9191256033  IM1       92              0.0000000000
      6254       332  IM1       N1              2.8306436475      -27.8419327567      -15.5739866440  IM1       92              0.0000000000
      6255       332  IM1       DN1             2.8442455840      -27.8566026345      -15.5757272072  IM1       92              0.0000000000
      6256       332  IM1       C2              2.0755411832      -26.7363990976      -15.2550631406  IM1       92              0.0000000000
      6257       332  IM1       DC2             2.0985080875      -26.7579549879      -15.2552602577  IM1       92              0.0000000000
      6258       332  IM1       H4              2.5087823135      -25.7488943070      -15.1549361517  IM1       92              0.0000000000
      6259       332  IM1       C3              0.7660179475      -27.1635985718      -15.2263811202  IM1       92              0.0000000000
      6260       332  IM1       DC3             0.7804632778      -27.1638481224      -15.2228365996  IM1       92              0.0000000000
      6261       332  IM1       H5             -0.1282566510      -26.5685158109      -15.0884012301  IM1       92              0.0000000000
      6262       332  IM1       C4              1.9654487097      -28.8828606053      -15.7169780863  IM1       92              0.0000000000
      6263       332  IM1       DC4             1.9791127168      -28.8810289425      -15.7142216834  IM1       92              0.0000000000
      6264       332  IM1       H6              2.2882249408      -29.8833684739      -16.0049008356  IM1       92              0.0000000000
      6265       332  IM1       N2              0.7150578176      -28.5058772298      -15.4966367532  IM1       92              0.0000000000
      6266       332  IM1       DN2             0.7257207450      -28.5048483945      -15.4921645172  IM1       92              0.0000000000
      6267       332  IM1       H7             -0.1045079980      -29.0681337382      -15.6069974926  IM1       92              0.0000000000
      6268       332  IM1       LPN21           0.4742535593      -28.6845606362      -15.5058860494  IM1       92              0.0000000000
      6269       333  IM1       C1            -17.4025285106       -4.5895193828      -25.6614055440  IM1       93              0.0000000000
      6270       333  IM1       DC1           -17.4005027464       -4.6056675425      -25.6595014898  IM1       93              0.0000000000
      6271       333  IM1       H1            -16.6842070378       -4.3209277653      -24.8575437360  IM1       93              0.0000000000
      6272       333  IM1       H2            -18.4461600036       -4.4758658035      -25.2977612517  IM1       93              0.0000000000
      6273       333  IM1       H3            -17.2335525708       -3.9285018669      -26.5382316245  IM1       93              0.0000000000
      6274       333  IM1       N1            -17.1913280134       -5.9369579268      -26.0624883585  IM1       93              0.0000000000
      6275       333  IM1       DN1           -17.1902956479       -5.9538252367      -26.0657553493  IM1       93              0.0000000000
      6276       333  IM1       C2            -16.3808167369       -6.8624658322      -25.4432527697  IM1       93              0.0000000000
      6277       333  IM1       DC2           -16.3807889981       -6.8689661384      -25.4522754321  IM1       93              0.0000000000
      6278       333  IM1       H4            -15.7858338545       -6.6034046643      -24.5762050888  IM1       93              0.0000000000
      6279       333  IM1       C3            -16.5433432767       -8.0326854403      -26.1438404867  IM1       93              0.0000000000
      6280       333  IM1       DC3           -16.5416246253       -8.0415706561      -26.1546805752  IM1       93              0.0000000000
      6281       333  IM1       H5            -16.1022569296       -9.0019168841      -25.9465532778  IM1       93              0.0000000000
      6282       333  IM1       C4            -17.8028215003       -6.5774746867      -27.0963763618  IM1       93              0.0000000000
      6283       333  IM1       DC4           -17.7927570540       -6.5819797530      -27.0918047018  IM1       93              0.0000000000
      6284       333  IM1       H6            -18.5213376072       -6.0799177393      -27.7477377740  IM1       93              0.0000000000
      6285       333  IM1       N2            -17.4150344084       -7.8444395370      -27.1774478835  IM1       93              0.0000000000
      6286       333  IM1       DN2           -17.4146115280       -7.8534519552      -27.1819743074  IM1       93              0.0000000000
      6287       333  IM1       H7            -17.7321543266       -8.5271366456      -27.8357484345  IM1       93              0.0000000000
      6288       333  IM1       LPN21         -17.5044061972       -8.0435631416      -27.3832693437  IM1       93              0.0000000000
      6289       334  IM1       C1             30.4658883728       -1.0804358703       28.7446749955  IM1       94              0.0000000000
      6290       334  IM1       DC1            30.4639575496       -1.0966611512       28.7484194288  IM1       94              0.0000000000
      6291       334  IM1       H1             30.7881045858       -1.8926049593       29.4308812926  IM1       94              0.0000000000
      6292       334  IM1       H2             29.9230333580       -0.2954831316       29.3134268133  IM1       94              0.0000000000
      6293       334  IM1       H3             31.3510659698       -0.6347586446       28.2425261807  IM1       94              0.0000000000
      6294       334  IM1       N1             29.5876541611       -1.6028131974       27.7528991133  IM1       94              0.0000000000
      6295       334  IM1       DN1            29.5882401810       -1.6093938636       27.7523280328  IM1       94              0.0000000000
      6296       334  IM1       C2             29.2321087641       -2.9233406493       27.5942022430  IM1       94              0.0000000000
      6297       334  IM1       DC2            29.2520840512       -2.9265315788       27.6098613342  IM1       94              0.0000000000
      6298       334  IM1       H4             29.5265952399       -3.6750231334       28.3161026230  IM1       94              0.0000000000
      6299       334  IM1       C3             28.3773198252       -2.9631400639       26.5122718304  IM1       94              0.0000000000
      6300       334  IM1       DC3            28.3873205234       -2.9757288829       26.5320363098  IM1       94              0.0000000000
      6301       334  IM1       H5             27.8480847206       -3.8109394601       26.0950963422  IM1       94              0.0000000000
      6302       334  IM1       C4             28.9569097962       -0.9081743135       26.7685899922  IM1       94              0.0000000000
      6303       334  IM1       DC4            28.9685103022       -0.9164878771       26.7816324780  IM1       94              0.0000000000
      6304       334  IM1       H6             29.0631895234        0.1699077854       26.6479931118  IM1       94              0.0000000000
      6305       334  IM1       N2             28.2222649237       -1.7098175880       26.0098268745  IM1       94              0.0000000000
      6306       334  IM1       DN2            28.2347684126       -1.7221797311       26.0255556826  IM1       94              0.0000000000
      6307       334  IM1       H7             27.6475648260       -1.4388875688       25.2376114108  IM1       94              0.0000000000
      6308       334  IM1       LPN21          28.0563090427       -1.6255085585       25.7745597218  IM1       94              0.0000000000
      6309       335  IM1       C1             -0.5252285540       25.8410629877        5.3631897808  IM1       95              0.0000000000
      6310       335  IM1       DC1            -0.5224430237       25.8352132163        5.3688439969  IM1       95              0.0000000000
      6311       335  IM1       H1              0.1080899855       24.9389157159        5.5023261434  IM1       95              0.0000000000
      6312       335  IM1       H2             -1.4048087828       25.5861238764        4.7341701682  IM1       95              0.0000000000
      6313       335  IM1       H3             -0.8473655121       26.2312432482        6.3522843896  IM1       95              0.0000000000
      6314       335  IM1       N1              0.2222756811       26.8506763321        4.6902101031  IM1       95              0.0000000000
      6315       335  IM1       DN1             0.2124805007       26.8545503904        4.7008166044  IM1       95              0.0000000000
      6316       335  IM1       C2              1.5197576347       26.7346861306        4.2591191362  IM1       95              0.0000000000
      6317       335  IM1       DC2             1.4946477383       26.7393023769        4.2702288051  IM1       95              0.0000000000
      6318       335  IM1       H4              2.1024077704       25.8412989871        4.4469148532  IM1       95              0.0000000000
      6319       335  IM1       C3              1.8239389936       27.9124207014        3.6107786938  IM1       95              0.0000000000
      6320       335  IM1       DC3             1.8210386215       27.9106542694        3.6092572633  IM1       95              0.0000000000
      6321       335  IM1       H5              2.7589201458       28.2008952115        3.1465786269  IM1       95              0.0000000000
      6322       335  IM1       C4             -0.2010015276       28.0889215058        4.3131746768  IM1       95              0.0000000000
      6323       335  IM1       DC4            -0.1949693913       28.0823755757        4.3197635315  IM1       95              0.0000000000
      6324       335  IM1       H6             -1.2021900310       28.4551766658        4.5402842064  IM1       95              0.0000000000
      6325       335  IM1       N2              0.7479564187       28.7520781869        3.6610986632  IM1       95              0.0000000000
      6326       335  IM1       DN2             0.7471874099       28.7505869497        3.6600148398  IM1       95              0.0000000000
      6327       335  IM1       H7              0.6929930908       29.6850330767        3.3053259743  IM1       95              0.0000000000
      6328       335  IM1       LPN21           0.7244390452       29.0297303424        3.5499401562  IM1       95              0.0000000000
      6329       336  IM1       C1            -27.2732197994      -18.0993047708      -22.6940638356  IM1       96              0.0000000000
      6330       336  IM1       DC1           -27.2695686742      -18.0947505922      -22.6936095422  IM1       96              0.0000000000
      6331       336  IM1       H1            -26.3492744550      -18.6769014286      -22.4772041991  IM1       96              0.0000000000
      6332       336  IM1       H2            -27.9763621482      -18.7462258758      -23.2609896872  IM1       96              0.0000000000
      6333       336  IM1       H3            -27.7308709216      -17.7526447440      -21.7429049226  IM1       96              0.0000000000
      6334       336  IM1       N1            -26.9672466329      -16.9711672529      -23.4975404207  IM1       96              0.0000000000
      6335       336  IM1       DN1           -26.9737435457      -16.9665978888      -23.4978793774  IM1       96              0.0000000000
      6336       336  IM1       C2            -25.7223777308      -16.6389384120      -23.9769826786  IM1       96              0.0000000000
      6337       336  IM1       DC2           -25.7337142479      -16.6511871690      -23.9675118495  IM1       96              0.0000000000
      6338       336  IM1       H4            -24.8526197926      -17.2436147413      -23.7516458957  IM1       96              0.0000000000
      6339       336  IM1       C3            -25.8909562594      -15.4837172717      -24.7082977283  IM1       96              0.0000000000
      6340       336  IM1       DC3           -25.8894473025      -15.4929552110      -24.7113290594  IM1       96              0.0000000000
      6341       336  IM1       H5            -25.1422184385      -14.9052963156      -25.2352795810  IM1       96              0.0000000000
      6342       336  IM1       C4            -27.8338349301      -16.0293417106      -23.9600020157  IM1       96              0.0000000000
      6343       336  IM1       DC4           -27.8336380833      -16.0367927779      -23.9556409122  IM1       96              0.0000000000
      6344       336  IM1       H6            -28.8984282173      -16.0432968601      -23.7264503370  IM1       96              0.0000000000
      6345       336  IM1       N2            -27.2103836604      -15.1263000081      -24.7045168975  IM1       96              0.0000000000
      6346       336  IM1       DN2           -27.2088351464      -15.1365180449      -24.7074711503  IM1       96              0.0000000000
      6347       336  IM1       H7            -27.6202370063      -14.3253596462      -25.1409968759  IM1       96              0.0000000000
      6348       336  IM1       LPN21         -27.3393779440      -14.8927817299      -24.8417382099  IM1       96              0.0000000000
      6349       337  IM1       C1            -14.2312170252      -15.3040779425       22.8968090470  IM1       97              0.0000000000
      6350       337  IM1       DC1           -14.2224785511      -15.2984957220       22.8947586983  IM1       97              0.0000000000
      6351       337  IM1       H1            -14.6252888622      -14.3022187433       22.6223886866  IM1       97              0.0000000000
      6352       337  IM1       H2            -13.7548005979      -15.7586650332       22.0019912078  IM1       97              0.0000000000
      6353       337  IM1       H3            -13.5083948618      -15.2140337682       23.7357018690  IM1       97              0.0000000000
      6354       337  IM1       N1            -15.3035197091      -16.1335536037       23.3244722848  IM1       97              0.0000000000
      6355       337  IM1       DN1           -15.2877540828      -16.1385858564       23.3232114532  IM1       97              0.0000000000
      6356       337  IM1       C2            -16.6260947517      -15.7728816310       23.3948345302  IM1       97              0.0000000000
      6357       337  IM1       DC2           -16.6013224485      -15.7724177233       23.3843996229  IM1       97              0.0000000000
      6358       337  IM1       H4            -16.9669212850      -14.7728264489       23.1568935565  IM1       97              0.0000000000
      6359       337  IM1       C3            -17.3047793079      -16.8933028491       23.8157658848  IM1       97              0.0000000000
      6360       337  IM1       DC3           -17.2894602579      -16.8932973604       23.8161700163  IM1       97              0.0000000000
      6361       337  IM1       H5            -18.3695730868      -17.0016838469       23.9811646992  IM1       97              0.0000000000
      6362       337  IM1       C4            -15.2290391118      -17.4346322955       23.7179036442  IM1       97              0.0000000000
      6363       337  IM1       DC4           -15.2255168052      -17.4275286049       23.7179777092  IM1       97              0.0000000000
      6364       337  IM1       H6            -14.2868886795      -17.9798851199       23.7740456103  IM1       97              0.0000000000
      6365       337  IM1       N2            -16.4224146412      -17.9167366626       24.0317820672  IM1       97              0.0000000000
      6366       337  IM1       DN2           -16.4171723314      -17.9183224078       24.0440629304  IM1       97              0.0000000000
      6367       337  IM1       H7            -16.6357598539      -18.8450032426       24.3364211595  IM1       97              0.0000000000
      6368       337  IM1       LPN21         -16.4797426453      -18.1945078228       24.1295403533  IM1       97              0.0000000000
      6369       338  IM1       C1            -14.9537278719      -14.3268515123       32.1908836512  IM1       98              0.0000000000
      6370       338  IM1       DC1           -14.9501569579      -14.3282307728       32.1930674307  IM1       98              0.0000000000
      6371       338  IM1       H1            -14.2203753382      -14.2709971477       31.3581800129  IM1       98              0.0000000000
      6372       338  IM1       H2            -14.4192355653      -14.2568525449       33.1623460122  IM1       98              0.0000000000
      6373       338  IM1       H3            -15.6972440955      -13.5070011353       32.0941883198  IM1       98              0.0000000000
      6374       338  IM1       N1            -15.6408049201      -15.5750790648       32.1328051975  IM1       98              0.0000000000
      6375       338  IM1       DN1           -15.6446307417      -15.5706912929       32.1437281499  IM1       98              0.0000000000
      6376       338  IM1       C2            -15.4746026711      -16.5685655158       31.1972448880  IM1       98              0.0000000000
      6377       338  IM1       DC2           -15.4681908300      -16.5478727201       31.2077888990  IM1       98              0.0000000000
      6378       338  IM1       H4            -14.7715883470      -16.4577788810       30.3809200864  IM1       98              0.0000000000
      6379       338  IM1       C3            -16.3327377188      -17.5887280597       31.5517590000  IM1       98              0.0000000000
      6380       338  IM1       DC3           -16.3221227653      -17.5809890367       31.5546398018  IM1       98              0.0000000000
      6381       338  IM1       H5            -16.4850100783      -18.5479742749       31.0726464587  IM1       98              0.0000000000
      6382       338  IM1       C4            -16.5874010235      -16.0178769724       32.9975224217  IM1       98              0.0000000000
      6383       338  IM1       DC4           -16.5833393909      -16.0066002707       32.9993767132  IM1       98              0.0000000000
      6384       338  IM1       H6            -16.9215213848      -15.4204511800       33.8457829989  IM1       98              0.0000000000
      6385       338  IM1       N2            -17.0265017005      -17.2245462046       32.6690145847  IM1       98              0.0000000000
      6386       338  IM1       DN2           -17.0240141962      -17.2140515645       32.6643983065  IM1       98              0.0000000000
      6387       338  IM1       H7            -17.7156585269      -17.7619070498       33.1551279381  IM1       98              0.0000000000
      6388       338  IM1       LPN21         -17.2366615906      -17.3807947715       32.8153676030  IM1       98              0.0000000000
      6389       339  IM1       C1             -7.4702945572      -31.8273585129      -30.0506156030  IM1       99              0.0000000000
      6390       339  IM1       DC1            -7.4521892120      -31.8304678456      -30.0506384262  IM1       99              0.0000000000
      6391       339  IM1       H1             -6.4501991298      -32.2415479424      -30.1995230786  IM1       99              0.0000000000
      6392       339  IM1       H2             -8.0020348603      -31.8056584811      -31.0258603716  IM1       99              0.0000000000
      6393       339  IM1       H3             -8.0253766088      -32.4459809810      -29.3133835093  IM1       99              0.0000000000
      6394       339  IM1       N1             -7.3798998011      -30.4961411821      -29.5453120523  IM1       99              0.0000000000
      6395       339  IM1       DN1            -7.3756200975      -30.4988184579      -29.5469018374  IM1       99              0.0000000000
      6396       339  IM1       C2             -6.2136841571      -29.9046641101      -29.1525921786  IM1       99              0.0000000000
      6397       339  IM1       DC2            -6.2146719923      -29.9188708398      -29.1558592480  IM1       99              0.0000000000
      6398       339  IM1       H4             -5.2854322149      -30.4576192292      -29.2266054749  IM1       99              0.0000000000
      6399       339  IM1       C3             -6.5309601882      -28.6160813821      -28.7750077897  IM1       99              0.0000000000
      6400       339  IM1       DC3            -6.5130193709      -28.6132432444      -28.7806269899  IM1       99              0.0000000000
      6401       339  IM1       H5             -5.8767432482      -27.8153015853      -28.4530747028  IM1       99              0.0000000000
      6402       339  IM1       C4             -8.3569565749      -29.5673470802      -29.3561722434  IM1       99              0.0000000000
      6403       339  IM1       DC4            -8.3393129696      -29.5789936676      -29.3569767728  IM1       99              0.0000000000
      6404       339  IM1       H6             -9.4100773554      -29.7855236977      -29.5334730764  IM1       99              0.0000000000
      6405       339  IM1       N2             -7.8609469973      -28.4182390079      -28.9058510352  IM1       99              0.0000000000
      6406       339  IM1       DN2            -7.8439602566      -28.4248330298      -28.9055071154  IM1       99              0.0000000000
      6407       339  IM1       H7             -8.3680975786      -27.5821806662      -28.6965552222  IM1       99              0.0000000000
      6408       339  IM1       LPN21          -8.0158017935      -28.1682296420      -28.8465609934  IM1       99              0.0000000000
      6409       340  IM1       C1              6.4116342637       36.4065750565       19.4356866659  IM1       100             0.0000000000
      6410       340  IM1       DC1             6.4023908579       36.4149032549       19.4295144150  IM1       100             0.0000000000
      6411       340  IM1       H1              6.4944438324       36.0810010503       18.3766941533  IM1       100             0.0000000000
      6412       340  IM1       H2              6.7850119548       35.5748798671       20.0706616367  IM1       100             0.0000000000
      6413       340  IM1       H3              6.9872438504       37.3368023732       19.6297787667  IM1       100             0.0000000000
      6414       340  IM1       N1              5.0374266146       36.6014466007       19.7078235669  IM1       100             0.0000000000
      6415       340  IM1       DN1             5.0341056342       36.6080474643       19.7142330795  IM1       100             0.0000000000
      6416       340  IM1       C2              4.0004215832       36.5533524032       18.7974920422  IM1       100             0.0000000000
      6417       340  IM1       DC2             4.0160622820       36.5612307494       18.8042476975  IM1       100             0.0000000000
      6418       340  IM1       H4              4.1782421182       36.5146146426       17.7298927526  IM1       100             0.0000000000
      6419       340  IM1       C3              2.8400469686       36.6189945186       19.5415650373  IM1       100             0.0000000000
      6420       340  IM1       DC3             2.8461402618       36.6305410509       19.5397429402  IM1       100             0.0000000000
      6421       340  IM1       H5              1.8206778601       36.7118637013       19.1877982562  IM1       100             0.0000000000
      6422       340  IM1       C4              4.4828939599       36.7097712647       20.9434860593  IM1       100             0.0000000000
      6423       340  IM1       DC4             4.4880294895       36.7118921725       20.9365310468  IM1       100             0.0000000000
      6424       340  IM1       H6              5.0884438637       36.8642392015       21.8365420321  IM1       100             0.0000000000
      6425       340  IM1       N2              3.1558854248       36.7335945089       20.8737772062  IM1       100             0.0000000000
      6426       340  IM1       DN2             3.1602776203       36.7373164670       20.8694088395  IM1       100             0.0000000000
      6427       340  IM1       H7              2.5335548405       36.9636715708       21.6219544509  IM1       100             0.0000000000
      6428       340  IM1       LPN21           2.9690688388       36.7591762423       21.1071120259  IM1       100             0.0000000000
      6429       341  IM1       C1            -29.5210867439       35.2540574201      -29.0209879094  IM1       101             0.0000000000
      6430       341  IM1       DC1           -29.5290437025       35.2471296626      -29.0393606352  IM1       101             0.0000000000
      6431       341  IM1       H1            -30.4521159216       35.1506001833      -28.4236586276  IM1       101             0.0000000000
      6432       341  IM1       H2            -29.0514045079       36.2415965320      -28.8248091650  IM1       101             0.0000000000
      6433       341  IM1       H3            -28.8199051917       34.4383280138      -28.7430473264  IM1       101             0.0000000000
      6434       341  IM1       N1            -29.8447452302       35.1667405657      -30.3989091776  IM1       101             0.0000000000
      6435       341  IM1       DN1           -29.8601212090       35.1618517070      -30.4124070897  IM1       101             0.0000000000
      6436       341  IM1       C2            -31.0977282083       34.9269883593      -30.9221565426  IM1       101             0.0000000000
      6437       341  IM1       DC2           -31.1033843307       34.9258223062      -30.9270070510  IM1       101             0.0000000000
      6438       341  IM1       H4            -31.9675744683       34.8560426800      -30.2808896745  IM1       101             0.0000000000
      6439       341  IM1       C3            -30.9260404542       34.8268749829      -32.2825082620  IM1       101             0.0000000000
      6440       341  IM1       DC3           -30.9443524712       34.8191358835      -32.2977080886  IM1       101             0.0000000000
      6441       341  IM1       H5            -31.6714677029       34.6634663959      -33.0509644095  IM1       101             0.0000000000
      6442       341  IM1       C4            -28.9778181588       35.2007325570      -31.4470494927  IM1       101             0.0000000000
      6443       341  IM1       DC4           -28.9969303272       35.1883125652      -31.4392664340  IM1       101             0.0000000000
      6444       341  IM1       H6            -27.9085717930       35.3714755662      -31.3219134305  IM1       101             0.0000000000
      6445       341  IM1       N2            -29.6110008124       34.9670352204      -32.5923336201  IM1       101             0.0000000000
      6446       341  IM1       DN2           -29.6258832529       34.9630120177      -32.5923432965  IM1       101             0.0000000000
      6447       341  IM1       H7            -29.1966172650       34.9530649895      -33.5023287346  IM1       101             0.0000000000
      6448       341  IM1       LPN21         -29.4838733801       34.9496114950      -32.8635070512  IM1       101             0.0000000000
      6449       342  IM1       C1              4.3996981307       -1.1914759877       27.5995092349  IM1       102             0.0000000000
      6450       342  IM1       DC1             4.3979218029       -1.1955433579       27.6071387157  IM1       102             0.0000000000
      6451       342  IM1       H1              3.8859287546       -2.1137678722       27.9455434947  IM1       102             0.0000000000
      6452       342  IM1       H2              4.1990980442       -0.3590522985       28.3074297156  IM1       102             0.0000000000
      6453       342  IM1       H3              5.4924473727       -1.3741971640       27.5168468622  IM1       102             0.0000000000
      6454       342  IM1       N1              3.9033810042       -0.8223442884       26.3127673310  IM1       102             0.0000000000
      6455       342  IM1       DN1             3.9004902030       -0.8290870293       26.3194284791  IM1       102             0.0000000000
      6456       342  IM1       C2              2.9383599782       -1.4924916453       25.5905938451  IM1       102             0.0000000000
      6457       342  IM1       DC2             2.9418590592       -1.4922083002       25.5982115862  IM1       102             0.0000000000
      6458       342  IM1       H4              2.4868564467       -2.4016441424       25.9680528468  IM1       102             0.0000000000
      6459       342  IM1       C3              2.7667579658       -0.7748072934       24.4274094862  IM1       102             0.0000000000
      6460       342  IM1       DC3             2.7518542514       -0.7902622381       24.4252473244  IM1       102             0.0000000000
      6461       342  IM1       H5              2.1077533257       -0.9634526091       23.5889496904  IM1       102             0.0000000000
      6462       342  IM1       C4              4.2701353074        0.2563152572       25.5664616796  IM1       102             0.0000000000
      6463       342  IM1       DC4             4.2577393920        0.2360414047       25.5793971234  IM1       102             0.0000000000
      6464       342  IM1       H6              5.0307630119        0.9687450692       25.8858192503  IM1       102             0.0000000000
      6465       342  IM1       N2              3.5850597424        0.3047110538       24.4291877840  IM1       102             0.0000000000
      6466       342  IM1       DN2             3.5723673095        0.2879775222       24.4379229304  IM1       102             0.0000000000
      6467       342  IM1       H7              3.6819612603        0.9908859042       23.7082341304  IM1       102             0.0000000000
      6468       342  IM1       LPN21           3.6099826047        0.5154270349       24.2171084916  IM1       102             0.0000000000
      6469       343  IM1       C1             33.6362601479       31.9364136869        0.6899072983  IM1       103             0.0000000000
      6470       343  IM1       DC1            33.6311973582       31.9327574821        0.6873819842  IM1       103             0.0000000000
      6471       343  IM1       H1             33.4468857186       32.3249196264       -0.3335776600  IM1       103             0.0000000000
      6472       343  IM1       H2             34.2245145964       30.9959679839        0.6279429245  IM1       103             0.0000000000
      6473       343  IM1       H3             34.1761119440       32.7041741580        1.2844027970  IM1       103             0.0000000000
      6474       343  IM1       N1             32.3964497711       31.6520591949        1.3224517592  IM1       103             0.0000000000
      6475       343  IM1       DN1            32.3963911771       31.6449269999        1.3318465592  IM1       103             0.0000000000
      6476       343  IM1       C2             31.1608428789       31.7396636437        0.7313139955  IM1       103             0.0000000000
      6477       343  IM1       DC2            31.1745902241       31.7403742750        0.7367455146  IM1       103             0.0000000000
      6478       343  IM1       H4             31.0297846886       32.1317835336       -0.2696628987  IM1       103             0.0000000000
      6479       343  IM1       C3             30.2630765807       31.2702766554        1.6610708076  IM1       103             0.0000000000
      6480       343  IM1       DC3            30.2694185052       31.2694911718        1.6701893105  IM1       103             0.0000000000
      6481       343  IM1       H5             29.1905475757       31.1808262013        1.5403680747  IM1       103             0.0000000000
      6482       343  IM1       C4             32.1975179874       31.1478973650        2.5725207864  IM1       103             0.0000000000
      6483       343  IM1       DC4            32.2007934670       31.1412221131        2.5697881921  IM1       103             0.0000000000
      6484       343  IM1       H6             33.0073461531       30.9984200724        3.2866180353  IM1       103             0.0000000000
      6485       343  IM1       N2             30.9157150895       30.8998381736        2.8073780667  IM1       103             0.0000000000
      6486       343  IM1       DN2            30.9133934931       30.8926706875        2.8164513398  IM1       103             0.0000000000
      6487       343  IM1       H7             30.5198665977       30.5587996642        3.6600190853  IM1       103             0.0000000000
      6488       343  IM1       LPN21          30.8005949894       30.7866202793        3.0602200548  IM1       103             0.0000000000
      6489       344  IM1       C1             -5.7173142749       -0.9355259241       15.4893728795  IM1       104             0.0000000000
      6490       344  IM1       DC1            -5.6932833747       -0.9211308401       15.4625871457  IM1       104             0.0000000000
      6491       344  IM1       H1             -5.5567546393       -1.9181006306       14.9963327685  IM1       104             0.0000000000
      6492       344  IM1       H2             -6.6453501903       -0.9939258206       16.0973694193  IM1       104             0.0000000000
      6493       344  IM1       H3             -4.8563308474       -0.6827428493       16.1444524583  IM1       104             0.0000000000
      6494       344  IM1       N1             -5.8766660069        0.0746604215       14.5027740374  IM1       104             0.0000000000
      6495       344  IM1       DN1            -5.8621489008        0.0843639541       14.4795923536  IM1       104             0.0000000000
      6496       344  IM1       C2             -5.8665166292       -0.1157818396       13.1377042695  IM1       104             0.0000000000
      6497       344  IM1       DC2            -5.8312740853       -0.1159169199       13.1347578430  IM1       104             0.0000000000
      6498       344  IM1       H4             -5.8472730383       -1.1114580153       12.7120898461  IM1       104             0.0000000000
      6499       344  IM1       C3             -6.0192692266        1.1317731261       12.5774528507  IM1       104             0.0000000000
      6500       344  IM1       DC3            -6.0039831144        1.1341170361       12.5728172222  IM1       104             0.0000000000
      6501       344  IM1       H5             -6.0951398368        1.3937539752       11.5293599706  IM1       104             0.0000000000
      6502       344  IM1       C4             -6.0164760717        1.4134048763       14.7133348546  IM1       104             0.0000000000
      6503       344  IM1       DC4            -5.9994497066        1.4029204746       14.7003995758  IM1       104             0.0000000000
      6504       344  IM1       H6             -6.1346270896        1.8306334642       15.7133651753  IM1       104             0.0000000000
      6505       344  IM1       N2             -6.0605072651        2.0813342199       13.5611023696  IM1       104             0.0000000000
      6506       344  IM1       DN2            -6.0535076177        2.0855496090       13.5498776146  IM1       104             0.0000000000
      6507       344  IM1       H7             -6.2444971724        3.0582503138       13.4525544095  IM1       104             0.0000000000
      6508       344  IM1       LPN21          -6.0762154466        2.3793140612       13.5300980594  IM1       104             0.0000000000
      6509       345  IM1       C1            -23.3212010886        6.0702440643        2.7716777791  IM1       105             0.0000000000
      6510       345  IM1       DC1           -23.3514810346        6.0775467373        2.7544208624  IM1       105             0.0000000000
      6511       345  IM1       H1            -23.1684380857        6.4032355270        1.7228207103  IM1       105             0.0000000000
      6512       345  IM1       H2            -24.1946902152        6.5851860645        3.2257399817  IM1       105             0.0000000000
      6513       345  IM1       H3            -23.4715534801        4.9697011270        2.7944901027  IM1       105             0.0000000000
      6514       345  IM1       N1            -22.1517772394        6.3751315808        3.5344959328  IM1       105             0.0000000000
      6515       345  IM1       DN1           -22.1821981083        6.3685051365        3.5221711045  IM1       105             0.0000000000
      6516       345  IM1       C2            -21.0549121913        7.0924236611        3.1083853295  IM1       105             0.0000000000
      6517       345  IM1       DC2           -21.0869518581        7.0747156103        3.1010231176  IM1       105             0.0000000000
      6518       345  IM1       H4            -20.9674542823        7.4586666253        2.0929513300  IM1       105             0.0000000000
      6519       345  IM1       C3            -20.2415231440        7.2517300320        4.2104296227  IM1       105             0.0000000000
      6520       345  IM1       DC3           -20.2524505622        7.2523810705        4.1885652918  IM1       105             0.0000000000
      6521       345  IM1       H5            -19.2904312168        7.7638693474        4.2880599495  IM1       105             0.0000000000
      6522       345  IM1       C4            -21.9623295571        6.1362975345        4.8590411611  IM1       105             0.0000000000
      6523       345  IM1       DC4           -21.9728235872        6.1389924343        4.8317284452  IM1       105             0.0000000000
      6524       345  IM1       H6            -22.6836699932        5.5885706583        5.4654760250  IM1       105             0.0000000000
      6525       345  IM1       N2            -20.8208996085        6.6530460686        5.2876145503  IM1       105             0.0000000000
      6526       345  IM1       DN2           -20.8287402500        6.6562239126        5.2661833650  IM1       105             0.0000000000
      6527       345  IM1       H7            -20.4659111229        6.6120947561        6.2215878726  IM1       105             0.0000000000
      6528       345  IM1       LPN21         -20.7161676401        6.6377451099        5.5683227536  IM1       105             0.0000000000
      6529       346  IM1       C1             15.6418903168      -34.8461987000      -17.1219213112  IM1       106             0.0000000000
      6530       346  IM1       DC1            15.6277027574      -34.8459660199      -17.1135420904  IM1       106             0.0000000000
      6531       346  IM1       H1             15.3914055722      -35.3838615133      -18.0613344752  IM1       106             0.0000000000
      6532       346  IM1       H2             16.5992192421      -35.2431553598      -16.7215867772  IM1       106             0.0000000000
      6533       346  IM1       H3             15.7385151490      -33.7581514795      -17.3247460877  IM1       106             0.0000000000
      6534       346  IM1       N1             14.6073863825      -35.0434201417      -16.1578821117  IM1       106             0.0000000000
      6535       346  IM1       DN1            14.6017885726      -35.0395203628      -16.1456041408  IM1       106             0.0000000000
      6536       346  IM1       C2             13.4471944032      -35.7539237658      -16.3324647327  IM1       106             0.0000000000
      6537       346  IM1       DC2            13.4527772440      -35.7328657049      -16.3166158803  IM1       106             0.0000000000
      6538       346  IM1       H4             13.1452255358      -36.1111282092      -17.3092496573  IM1       106             0.0000000000
      6539       346  IM1       C3             12.8112600551      -35.7968161221      -15.1152734112  IM1       106             0.0000000000
      6540       346  IM1       DC3            12.8018225881      -35.7853421277      -15.1069465320  IM1       106             0.0000000000
      6541       346  IM1       H5             11.8932329632      -36.3048069759      -14.8468324474  IM1       106             0.0000000000
      6542       346  IM1       C4             14.5989678466      -34.6390130403      -14.8614797539  IM1       106             0.0000000000
      6543       346  IM1       DC4            14.5933952240      -34.6378625196      -14.8635856925  IM1       106             0.0000000000
      6544       346  IM1       H6             15.3927017712      -34.0127359585      -14.4542163579  IM1       106             0.0000000000
      6545       346  IM1       N2             13.5205944569      -35.0736927612      -14.2121498988  IM1       106             0.0000000000
      6546       346  IM1       DN2            13.5173767307      -35.0731420733      -14.2063699709  IM1       106             0.0000000000
      6547       346  IM1       H7             13.2775771987      -34.9002815573      -13.2577541913  IM1       106             0.0000000000
      6548       346  IM1       LPN21          13.4523641097      -35.0203010306      -13.9249323109  IM1       106             0.0000000000
      6549       347  IM1       C1            -12.7163505125       13.6703626056      -21.2503393283  IM1       107             0.0000000000
      6550       347  IM1       DC1           -12.7183231396       13.6711548288      -21.2536593282  IM1       107             0.0000000000
      6551       347  IM1       H1            -12.1357852450       12.7873846576      -20.9073890213  IM1       107             0.0000000000
      6552       347  IM1       H2            -12.7625393692       14.4206011980      -20.4322136391  IM1       107             0.0000000000
      6553       347  IM1       H3            -12.2338481932       14.1058040050      -22.1513960966  IM1       107             0.0000000000
      6554       347  IM1       N1            -14.0485316177       13.2699877598      -21.5847462824  IM1       107             0.0000000000
      6555       347  IM1       DN1           -14.0519845969       13.2787489003      -21.5879580920  IM1       107             0.0000000000
      6556       347  IM1       C2            -14.5660527070       11.9965107368      -21.5050997660  IM1       107             0.0000000000
      6557       347  IM1       DC2           -14.5642576377       12.0163963656      -21.5076585887  IM1       107             0.0000000000
      6558       347  IM1       H4            -13.9743119775       11.1652608491      -21.1421183155  IM1       107             0.0000000000
      6559       347  IM1       C3            -15.8663789386       12.0777492644      -21.9523642968  IM1       107             0.0000000000
      6560       347  IM1       DC3           -15.8752448706       12.0777921481      -21.9537962952  IM1       107             0.0000000000
      6561       347  IM1       H5            -16.5956493816       11.2819646036      -22.0405708409  IM1       107             0.0000000000
      6562       347  IM1       C4            -15.0480668179       14.0632136322      -22.0619225046  IM1       107             0.0000000000
      6563       347  IM1       DC4           -15.0418980482       14.0640855023      -22.0646086799  IM1       107             0.0000000000
      6564       347  IM1       H6            -14.9191274587       15.1351151365      -22.2119285276  IM1       107             0.0000000000
      6565       347  IM1       N2            -16.1558026142       13.3678658735      -22.2985372965  IM1       107             0.0000000000
      6566       347  IM1       DN2           -16.1545711254       13.3682159836      -22.3003651720  IM1       107             0.0000000000
      6567       347  IM1       H7            -17.0255917214       13.7248334316      -22.6391853136  IM1       107             0.0000000000
      6568       347  IM1       LPN21         -16.4134833614       13.4776170638      -22.4060329185  IM1       107             0.0000000000
      6569       348  IM1       C1            -15.7956710005       28.0387305741        5.7512376977  IM1       108             0.0000000000
      6570       348  IM1       DC1           -15.7853056713       28.0674578066        5.7618217080  IM1       108             0.0000000000
      6571       348  IM1       H1            -14.8528793636       27.8983023485        5.1804970887  IM1       108             0.0000000000
      6572       348  IM1       H2            -16.6555934075       27.9582948787        5.0523925421  IM1       108             0.0000000000
      6573       348  IM1       H3            -15.8555225424       27.2551035375        6.5365194693  IM1       108             0.0000000000
      6574       348  IM1       N1            -15.8122125722       29.3198635750        6.3718212662  IM1       108             0.0000000000
      6575       348  IM1       DN1           -15.8135748407       29.3418983751        6.3848968701  IM1       108             0.0000000000
      6576       348  IM1       C2            -14.7887396069       30.2362191349        6.3551527277  IM1       108             0.0000000000
      6577       348  IM1       DC2           -14.7887317363       30.2387694021        6.3614697021  IM1       108             0.0000000000
      6578       348  IM1       H4            -13.8859838993       30.0538452405        5.7853625075  IM1       108             0.0000000000
      6579       348  IM1       C3            -15.2216810599       31.3142177919        7.0922725757  IM1       108             0.0000000000
      6580       348  IM1       DC3           -15.2268459352       31.3266068665        7.1009259958  IM1       108             0.0000000000
      6581       348  IM1       H5            -14.7113824284       32.2534396810        7.2664751862  IM1       108             0.0000000000
      6582       348  IM1       C4            -16.8069902971       29.8663086742        7.1242163468  IM1       108             0.0000000000
      6583       348  IM1       DC4           -16.8043953149       29.8701640289        7.1283107924  IM1       108             0.0000000000
      6584       348  IM1       H6            -17.7443846673       29.3451757744        7.3186701856  IM1       108             0.0000000000
      6585       348  IM1       N2            -16.4755518590       31.0718342780        7.5757544797  IM1       108             0.0000000000
      6586       348  IM1       DN2           -16.4798294501       31.0820998615        7.5791571378  IM1       108             0.0000000000
      6587       348  IM1       H7            -17.0393364251       31.6821513550        8.1322255302  IM1       108             0.0000000000
      6588       348  IM1       LPN21         -16.6454941041       31.2492008886        7.7479773550  IM1       108             0.0000000000
      6589       349  IM1       C1             -5.5816521615      -17.0241783440      -27.6704240071  IM1       109             0.0000000000
      6590       349  IM1       DC1            -5.5679150406      -17.0079015185      -27.6606677835  IM1       109             0.0000000000
      6591       349  IM1       H1             -6.3864986137      -16.3482003255      -28.0304197122  IM1       109             0.0000000000
      6592       349  IM1       H2             -6.0431342026      -17.8997222366      -27.1656684049  IM1       109             0.0000000000
      6593       349  IM1       H3             -4.9634416137      -17.3561047008      -28.5317959439  IM1       109             0.0000000000
      6594       349  IM1       N1             -4.7404166829      -16.3429129842      -26.7465194118  IM1       109             0.0000000000
      6595       349  IM1       DN1            -4.7267941677      -16.3400123395      -26.7346717944  IM1       109             0.0000000000
      6596       349  IM1       C2             -4.8726037549      -15.0351215714      -26.3491633008  IM1       109             0.0000000000
      6597       349  IM1       DC2            -4.8678631286      -15.0411339162      -26.3543769307  IM1       109             0.0000000000
      6598       349  IM1       H4             -5.6763411855      -14.4131883346      -26.7234548870  IM1       109             0.0000000000
      6599       349  IM1       C3             -3.8444665870      -14.7941934507      -25.4646271778  IM1       109             0.0000000000
      6600       349  IM1       DC3            -3.8328704923      -14.8017072850      -25.4561823114  IM1       109             0.0000000000
      6601       349  IM1       H5             -3.6274638732      -13.8735640853      -24.9371422076  IM1       109             0.0000000000
      6602       349  IM1       C4             -3.6486376050      -16.8376302735      -26.0991638927  IM1       109             0.0000000000
      6603       349  IM1       DC4            -3.6479522092      -16.8380355673      -26.0966463026  IM1       109             0.0000000000
      6604       349  IM1       H6             -3.3130824825      -17.8656037227      -26.2361797598  IM1       109             0.0000000000
      6605       349  IM1       N2             -3.0863784766      -15.9232303354      -25.3117155396  IM1       109             0.0000000000
      6606       349  IM1       DN2            -3.0770751750      -15.9256007510      -25.3038618646  IM1       109             0.0000000000
      6607       349  IM1       H7             -2.2791364133      -16.0434451859      -24.7338672538  IM1       109             0.0000000000
      6608       349  IM1       LPN21          -2.8441292067      -15.9626596593      -25.1392028744  IM1       109             0.0000000000
      6609       350  IM1       C1             36.5897525771       26.4669393609      -33.7272538658  IM1       110             0.0000000000
      6610       350  IM1       DC1            36.6024787025       26.4577498019      -33.7143105357  IM1       110             0.0000000000
      6611       350  IM1       H1             37.4919932536       26.2437875540      -34.3359295049  IM1       110             0.0000000000
      6612       350  IM1       H2             36.8558486089       27.1744287425      -32.9130225247  IM1       110             0.0000000000
      6613       350  IM1       H3             35.8008057969       26.8990156896      -34.3793229007  IM1       110             0.0000000000
      6614       350  IM1       N1             36.1046561102       25.2550736546      -33.1532153510  IM1       110             0.0000000000
      6615       350  IM1       DN1            36.1033454280       25.2507595035      -33.1414590548  IM1       110             0.0000000000
      6616       350  IM1       C2             36.6760301056       24.0055965446      -33.2600103994  IM1       110             0.0000000000
      6617       350  IM1       DC2            36.6778417571       24.0167282600      -33.2582178273  IM1       110             0.0000000000
      6618       350  IM1       H4             37.5380797814       23.8293819858      -33.8914435200  IM1       110             0.0000000000
      6619       350  IM1       C3             35.8773247785       23.1528551918      -32.5316474549  IM1       110             0.0000000000
      6620       350  IM1       DC3            35.8787041327       23.1503235453      -32.5299858429  IM1       110             0.0000000000
      6621       350  IM1       H5             35.9659528617       22.0793524770      -32.4192820504  IM1       110             0.0000000000
      6622       350  IM1       C4             35.0130789596       25.1144981516      -32.3550586222  IM1       110             0.0000000000
      6623       350  IM1       DC4            35.0238608581       25.1182202850      -32.3505378684  IM1       110             0.0000000000
      6624       350  IM1       H6             34.3756579837       25.9573919801      -32.0879921637  IM1       110             0.0000000000
      6625       350  IM1       N2             34.8621136770       23.8575489361      -31.9531589237  IM1       110             0.0000000000
      6626       350  IM1       DN2            34.8700876651       23.8582121880      -31.9514985159  IM1       110             0.0000000000
      6627       350  IM1       H7             34.1233916265       23.4990163735      -31.3824189358  IM1       110             0.0000000000
      6628       350  IM1       LPN21          34.6462056141       23.7553610709      -31.7716614069  IM1       110             0.0000000000
      6629       351  IM1       C1            -10.5745090044       11.6615005511      -35.6074030166  IM1       111             0.0000000000
      6630       351  IM1       DC1           -10.5635436580       11.6891692660      -35.6048387749  IM1       111             0.0000000000
      6631       351  IM1       H1            -11.3400534438       11.9288979216      -34.8479549544  IM1       111             0.0000000000
      6632       351  IM1       H2            -10.3236034184       10.5841625543      -35.5039127826  IM1       111             0.0000000000
      6633       351  IM1       H3            -10.9745100452       11.8551968772      -36.6256377148  IM1       111             0.0000000000
      6634       351  IM1       N1             -9.3870045877       12.4414600967      -35.4070353412  IM1       111             0.0000000000
      6635       351  IM1       DN1            -9.3733051972       12.4590444020      -35.4073901458  IM1       111             0.0000000000
      6636       351  IM1       C2             -9.1962921541       13.4130506452      -34.4462946623  IM1       111             0.0000000000
      6637       351  IM1       DC2            -9.1986791993       13.4236275206      -34.4531043305  IM1       111             0.0000000000
      6638       351  IM1       H4             -9.9479309473       13.6028378847      -33.6900480568  IM1       111             0.0000000000
      6639       351  IM1       C3             -7.9249433538       13.9087606061      -34.6446552153  IM1       111             0.0000000000
      6640       351  IM1       DC3            -7.9196921230       13.9248346911      -34.6565311389  IM1       111             0.0000000000
      6641       351  IM1       H5             -7.3985845970       14.6585300910      -34.0670037817  IM1       111             0.0000000000
      6642       351  IM1       C4             -8.2456733077       12.4095670189      -36.1538402091  IM1       111             0.0000000000
      6643       351  IM1       DC4            -8.2508945933       12.4228217285      -36.1549962626  IM1       111             0.0000000000
      6644       351  IM1       H6             -8.1160806287       11.7097402592      -36.9793995613  IM1       111             0.0000000000
      6645       351  IM1       N2             -7.3604379243       13.3163132039      -35.7398572626  IM1       111             0.0000000000
      6646       351  IM1       DN2            -7.3572828631       13.3317489989      -35.7482570155  IM1       111             0.0000000000
      6647       351  IM1       H7             -6.4330053521       13.4458004057      -36.0907160496  IM1       111             0.0000000000
      6648       351  IM1       LPN21          -7.0940088732       13.3740392835      -35.8650900874  IM1       111             0.0000000000
      6649       352  IM1       C1             18.3558227979      -23.8662870401      -20.0311917056  IM1       112             0.0000000000
      6650       352  IM1       DC1            18.3190292168      -23.8892225103      -20.0002942406  IM1       112             0.0000000000
      6651       352  IM1       H1             18.6068793019      -24.9470599410      -19.9744328435  IM1       112             0.0000000000
      6652       352  IM1       H2             18.7293194735      -23.3266780276      -19.1347301346  IM1       112             0.0000000000
      6653       352  IM1       H3             18.8413175353      -23.4421353088      -20.9360183018  IM1       112             0.0000000000
      6654       352  IM1       N1             16.9437598136      -23.6822065904      -20.1591848704  IM1       112             0.0000000000
      6655       352  IM1       DN1            16.9218765146      -23.6879060787      -20.1464709169  IM1       112             0.0000000000
      6656       352  IM1       C2             15.9789236197      -24.6729490436      -20.2108610713  IM1       112             0.0000000000
      6657       352  IM1       DC2            15.9873819836      -24.6823831580      -20.1866897305  IM1       112             0.0000000000
      6658       352  IM1       H4             16.2464428613      -25.7223772078      -20.2060669477  IM1       112             0.0000000000
      6659       352  IM1       C3             14.7766253384      -24.0284430516      -20.4374171885  IM1       112             0.0000000000
      6660       352  IM1       DC3            14.7847722074      -24.0391078741      -20.4308753714  IM1       112             0.0000000000
      6661       352  IM1       H5             13.7881985290      -24.4540852134      -20.5587851986  IM1       112             0.0000000000
      6662       352  IM1       C4             16.2918450405      -22.4955720953      -20.3127259883  IM1       112             0.0000000000
      6663       352  IM1       DC4            16.2913352159      -22.5103057436      -20.2976175130  IM1       112             0.0000000000
      6664       352  IM1       H6             16.8131158374      -21.5382992202      -20.3150495418  IM1       112             0.0000000000
      6665       352  IM1       N2             14.9809592100      -22.6787772239      -20.4407552554  IM1       112             0.0000000000
      6666       352  IM1       DN2            14.9825757587      -22.6938854655      -20.4289308469  IM1       112             0.0000000000
      6667       352  IM1       H7             14.2931105448      -21.9654604927      -20.5750811828  IM1       112             0.0000000000
      6668       352  IM1       LPN21          14.7752134221      -22.4618164157      -20.4651822576  IM1       112             0.0000000000
      6669       353  IM1       C1            -16.2517339993       10.6852703081       -6.1709665353  IM1       113             0.0000000000
      6670       353  IM1       DC1           -16.2474391265       10.6833258986       -6.1686957717  IM1       113             0.0000000000
      6671       353  IM1       H1            -15.1993704917       11.0110183139       -6.0269516573  IM1       113             0.0000000000
      6672       353  IM1       H2            -16.8625843201       11.0102524770       -5.3017315409  IM1       113             0.0000000000
      6673       353  IM1       H3            -16.6513661149       11.1098586029       -7.1166620219  IM1       113             0.0000000000
      6674       353  IM1       N1            -16.3160044661        9.2741359408       -6.2711023093  IM1       113             0.0000000000
      6675       353  IM1       DN1           -16.3281323111        9.2751350837       -6.2684959745  IM1       113             0.0000000000
      6676       353  IM1       C2            -15.2509644567        8.4031294682       -6.3017112185  IM1       113             0.0000000000
      6677       353  IM1       DC2           -15.2673639536        8.4214129797       -6.2929596569  IM1       113             0.0000000000
      6678       353  IM1       H4            -14.2251463895        8.7411357976       -6.2220995713  IM1       113             0.0000000000
      6679       353  IM1       C3            -15.7969367248        7.1458447843       -6.3980356894  IM1       113             0.0000000000
      6680       353  IM1       DC3           -15.8004920094        7.1515301223       -6.3816575613  IM1       113             0.0000000000
      6681       353  IM1       H5            -15.2860145775        6.1918615207       -6.4400296408  IM1       113             0.0000000000
      6682       353  IM1       C4            -17.4471576601        8.5259496929       -6.3198432917  IM1       113             0.0000000000
      6683       353  IM1       DC4           -17.4460639220        8.5312275100       -6.3144688575  IM1       113             0.0000000000
      6684       353  IM1       H6            -18.4452874142        8.9632098250       -6.3451527928  IM1       113             0.0000000000
      6685       353  IM1       N2            -17.1647367523        7.2370222818       -6.3628993382  IM1       113             0.0000000000
      6686       353  IM1       DN2           -17.1679800241        7.2395474174       -6.3496926774  IM1       113             0.0000000000
      6687       353  IM1       H7            -17.8158535421        6.4849870474       -6.4653197079  IM1       113             0.0000000000
      6688       353  IM1       LPN21         -17.3662206081        7.0147564480       -6.3643673016  IM1       113             0.0000000000
      6689       354  IM1       C1              7.6705170812      -11.2173823686       -9.6810876588  IM1       114             0.0000000000
      6690       354  IM1       DC1             7.6798877107      -11.2237413067       -9.6730497401  IM1       114             0.0000000000
      6691       354  IM1       H1              7.1816707891      -10.4659695311       -9.0247881450  IM1       114             0.0000000000
      6692       354  IM1       H2              8.2046524194      -10.6805813428      -10.4940237569  IM1       114             0.0000000000
      6693       354  IM1       H3              8.3517947636      -11.8672238114       -9.0912675008  IM1       114             0.0000000000
      6694       354  IM1       N1              6.6769060910      -12.0215560773      -10.2596872450  IM1       114             0.0000000000
      6695       354  IM1       DN1             6.6917639377      -12.0323530412      -10.2589797753  IM1       114             0.0000000000
      6696       354  IM1       C2              5.3305350611      -11.9202721689      -10.0301402966  IM1       114             0.0000000000
      6697       354  IM1       DC2             5.3575911514      -11.9311534435      -10.0195178313  IM1       114             0.0000000000
      6698       354  IM1       H4              4.9157406054      -11.2102299876       -9.3253888083  IM1       114             0.0000000000
      6699       354  IM1       C3              4.7331192448      -12.7937587797      -10.9010515444  IM1       114             0.0000000000
      6700       354  IM1       DC3             4.7358011667      -12.8076243986      -10.8918246705  IM1       114             0.0000000000
      6701       354  IM1       H5              3.6733286647      -12.9875922936      -11.0113307140  IM1       114             0.0000000000
      6702       354  IM1       C4              6.8536757728      -12.9817857800      -11.2006430126  IM1       114             0.0000000000
      6703       354  IM1       DC4             6.8602401056      -12.9844107345      -11.1929204380  IM1       114             0.0000000000
      6704       354  IM1       H6              7.8378342640      -13.2978059465      -11.5465668749  IM1       114             0.0000000000
      6705       354  IM1       N2              5.6937324998      -13.4755407371      -11.5998863376  IM1       114             0.0000000000
      6706       354  IM1       DN2             5.7014409238      -13.4804246344      -11.5952710527  IM1       114             0.0000000000
      6707       354  IM1       H7              5.5519105101      -14.2097403370      -12.2638422629  IM1       114             0.0000000000
      6708       354  IM1       LPN21           5.6568924950      -13.6931118306      -11.8031242112  IM1       114             0.0000000000
      6709       355  IM1       C1             20.6690018266      -23.9370183407        1.8940826272  IM1       115             0.0000000000
      6710       355  IM1       DC1            20.6671580928      -23.9312042195        1.8970970718  IM1       115             0.0000000000
      6711       355  IM1       H1             20.3263224677      -24.1110041618        2.9364936743  IM1       115             0.0000000000
      6712       355  IM1       H2             21.4159648674      -24.7123024554        1.6196709674  IM1       115             0.0000000000
      6713       355  IM1       H3             19.8000267863      -23.9686265609        1.2025594529  IM1       115             0.0000000000
      6714       355  IM1       N1             21.2872628047      -22.6558601104        1.8003236190  IM1       115             0.0000000000
      6715       355  IM1       DN1            21.2885491554      -22.6533071444        1.7889876256  IM1       115             0.0000000000
      6716       355  IM1       C2             21.4758988527      -21.7830747546        2.8414731285  IM1       115             0.0000000000
      6717       355  IM1       DC2            21.4717427884      -21.7938690156        2.8245647751  IM1       115             0.0000000000
      6718       355  IM1       H4             21.1647569782      -22.0297194244        3.8490673627  IM1       115             0.0000000000
      6719       355  IM1       C3             22.0479649044      -20.6548391372        2.2945272417  IM1       115             0.0000000000
      6720       355  IM1       DC3            22.0434612250      -20.6528640480        2.2929756327  IM1       115             0.0000000000
      6721       355  IM1       H5             22.3387792700      -19.7397924948        2.7955318795  IM1       115             0.0000000000
      6722       355  IM1       C4             21.7535500417      -22.0322552343        0.6815599989  IM1       115             0.0000000000
      6723       355  IM1       DC4            21.7473233206      -22.0333884583        0.6819175041  IM1       115             0.0000000000
      6724       355  IM1       H6             21.7472576902      -22.5078792560       -0.2991755395  IM1       115             0.0000000000
      6725       355  IM1       N2             22.1980111853      -20.8117199397        0.9483661786  IM1       115             0.0000000000
      6726       355  IM1       DN2            22.1866973274      -20.8064944850        0.9436740600  IM1       115             0.0000000000
      6727       355  IM1       H7             22.6120020129      -20.1629673067        0.3098275222  IM1       115             0.0000000000
      6728       355  IM1       LPN21          22.3075683306      -20.6157281602        0.7494077551  IM1       115             0.0000000000
      6729       356  IM1       C1             29.2103276550      -11.9619174409       31.4768531819  IM1       116             0.0000000000
      6730       356  IM1       DC1            29.2073385139      -11.9888765581       31.4854242548  IM1       116             0.0000000000
      6731       356  IM1       H1             29.4295703725      -11.4042254915       32.4123922364  IM1       116             0.0000000000
      6732       356  IM1       H2             28.5237538411      -11.3510414698       30.8525392011  IM1       116             0.0000000000
      6733       356  IM1       H3             30.1571466567      -12.1556114378       30.9288226960  IM1       116             0.0000000000
      6734       356  IM1       N1             28.5884637207      -13.2154135848       31.7893165339  IM1       116             0.0000000000
      6735       356  IM1       DN1            28.5837424919      -13.2442056486       31.7776039358  IM1       116             0.0000000000
      6736       356  IM1       C2             28.4356733779      -13.7654776634       33.0412070390  IM1       116             0.0000000000
      6737       356  IM1       DC2            28.4336663895      -13.7939934336       33.0163547843  IM1       116             0.0000000000
      6738       356  IM1       H4             28.6643353383      -13.1761652450       33.9205895390  IM1       116             0.0000000000
      6739       356  IM1       C3             27.7340925385      -14.9378708043       32.8720630380  IM1       116             0.0000000000
      6740       356  IM1       DC3            27.7241160487      -14.9812109052       32.8580780242  IM1       116             0.0000000000
      6741       356  IM1       H5             27.3447979585      -15.5908433681       33.6434031452  IM1       116             0.0000000000
      6742       356  IM1       C4             28.0262036080      -14.0991697252       30.9191472254  IM1       116             0.0000000000
      6743       356  IM1       DC4            28.0281898438      -14.1158268876       30.9057151811  IM1       116             0.0000000000
      6744       356  IM1       H6             28.0092575721      -13.8999672240       29.8476383848  IM1       116             0.0000000000
      6745       356  IM1       N2             27.5200357523      -15.1681427535       31.5389447431  IM1       116             0.0000000000
      6746       356  IM1       DN2            27.5152222030      -15.1900804033       31.5259974290  IM1       116             0.0000000000
      6747       356  IM1       H7             27.0219479326      -15.9269294769       31.1192409991  IM1       116             0.0000000000
      6748       356  IM1       LPN21          27.3889269871      -15.4046480041       31.4090380146  IM1       116             0.0000000000
      6749       357  IM1       C1             12.3862085265       -1.7235505647      -18.7676964449  IM1       117             0.0000000000
      6750       357  IM1       DC1            12.3923172025       -1.7312070648      -18.7782438306  IM1       117             0.0000000000
      6751       357  IM1       H1             12.3063223201       -2.5990941992      -19.4469331774  IM1       117             0.0000000000
      6752       357  IM1       H2             11.3770096480       -1.3110921209      -18.5538819093  IM1       117             0.0000000000
      6753       357  IM1       H3             12.9036351589       -2.0149586656      -17.8287225365  IM1       117             0.0000000000
      6754       357  IM1       N1             13.1446428040       -0.7239016023      -19.3947696338  IM1       117             0.0000000000
      6755       357  IM1       DN1            13.1455372273       -0.7165822846      -19.3836091685  IM1       117             0.0000000000
      6756       357  IM1       C2             13.6590704419       -0.8003002961      -20.6589718047  IM1       117             0.0000000000
      6757       357  IM1       DC2            13.6462703226       -0.8114041916      -20.6364547752  IM1       117             0.0000000000
      6758       357  IM1       H4             13.5088574977       -1.6514407190      -21.3115704959  IM1       117             0.0000000000
      6759       357  IM1       C3             14.3785331703        0.3522481795      -20.8292677313  IM1       117             0.0000000000
      6760       357  IM1       DC3            14.3766826980        0.3346119203      -20.8172938487  IM1       117             0.0000000000
      6761       357  IM1       H5             14.9645132754        0.6144981805      -21.7014725544  IM1       117             0.0000000000
      6762       357  IM1       C4             13.5577430537        0.4515331608      -18.8545930602  IM1       117             0.0000000000
      6763       357  IM1       DC4            13.5642283325        0.4462166143      -18.8513470986  IM1       117             0.0000000000
      6764       357  IM1       H6             13.2796459014        0.7862993986      -17.8552465037  IM1       117             0.0000000000
      6765       357  IM1       N2             14.3403465302        1.1091870284      -19.6824813269  IM1       117             0.0000000000
      6766       357  IM1       DN2            14.3449197032        1.1017191715      -19.6694131912  IM1       117             0.0000000000
      6767       357  IM1       H7             14.7424786215        2.0148734760      -19.5482358808  IM1       117             0.0000000000
      6768       357  IM1       LPN21          14.4773339219        1.3695406479      -19.6237408183  IM1       117             0.0000000000
      6769       358  IM1       C1              7.1785721758      -20.6461122376       -8.5024276845  IM1       118             0.0000000000
      6770       358  IM1       DC1             7.1943729663      -20.6493751023       -8.5053944131  IM1       118             0.0000000000
      6771       358  IM1       H1              7.9628053388      -21.4288222982       -8.4207924623  IM1       118             0.0000000000
      6772       358  IM1       H2              6.3343761877      -21.0134333598       -9.1243033373  IM1       118             0.0000000000
      6773       358  IM1       H3              6.8217555619      -20.3745902886       -7.4859244946  IM1       118             0.0000000000
      6774       358  IM1       N1              7.7152101876      -19.4743015678       -9.0956987849  IM1       118             0.0000000000
      6775       358  IM1       DN1             7.7231293345      -19.4772368885       -9.0899564302  IM1       118             0.0000000000
      6776       358  IM1       C2              9.0272911428      -19.2614997543       -9.4457651926  IM1       118             0.0000000000
      6777       358  IM1       DC2             9.0292492801      -19.2907415355       -9.4304643532  IM1       118             0.0000000000
      6778       358  IM1       H4              9.7822738288      -20.0301122018       -9.3356513906  IM1       118             0.0000000000
      6779       358  IM1       C3              9.0805041751      -17.9814716916       -9.9577366308  IM1       118             0.0000000000
      6780       358  IM1       DC3             9.0905305682      -18.0013849281       -9.9499964566  IM1       118             0.0000000000
      6781       358  IM1       H5              9.9291169899      -17.4475821841      -10.3672574293  IM1       118             0.0000000000
      6782       358  IM1       C4              7.0455796672      -18.3296739377       -9.3827948901  IM1       118             0.0000000000
      6783       358  IM1       DC4             7.0597249769      -18.3511688743       -9.3764550345  IM1       118             0.0000000000
      6784       358  IM1       H6              5.9794647506      -18.2185942315       -9.1849053163  IM1       118             0.0000000000
      6785       358  IM1       N2              7.8498276211      -17.4163777786       -9.9127803662  IM1       118             0.0000000000
      6786       358  IM1       DN2             7.8642176060      -17.4298044929       -9.9099349624  IM1       118             0.0000000000
      6787       358  IM1       H7              7.5881492163      -16.5017245854      -10.2208938980  IM1       118             0.0000000000
      6788       358  IM1       LPN21           7.7704818991      -17.1414741353      -10.0029593177  IM1       118             0.0000000000
      6789       359  IM1       C1             24.9045087020      -14.2032130042      -30.1485785588  IM1       119             0.0000000000
      6790       359  IM1       DC1            24.9159473939      -14.2049367059      -30.1498810024  IM1       119             0.0000000000
      6791       359  IM1       H1             25.4588029760      -13.8951146437      -29.2363536641  IM1       119             0.0000000000
      6792       359  IM1       H2             24.5145541566      -15.2347887591      -30.0140129084  IM1       119             0.0000000000
      6793       359  IM1       H3             24.0646129122      -13.4993502359      -30.3315355646  IM1       119             0.0000000000
      6794       359  IM1       N1             25.7806087346      -14.1759141005      -31.2715817142  IM1       119             0.0000000000
      6795       359  IM1       DN1            25.7775031983      -14.1793176423      -31.2786854538  IM1       119             0.0000000000
      6796       359  IM1       C2             27.1083715660      -13.8158049254      -31.2689890066  IM1       119             0.0000000000
      6797       359  IM1       DC2            27.0881170699      -13.8152094416      -31.2735761123  IM1       119             0.0000000000
      6798       359  IM1       H4             27.6089330386      -13.4824906411      -30.3683065987  IM1       119             0.0000000000
      6799       359  IM1       C3             27.5521421836      -13.9796084745      -32.5620451542  IM1       119             0.0000000000
      6800       359  IM1       DC3            27.5538680408      -13.9752087213      -32.5641414548  IM1       119             0.0000000000
      6801       359  IM1       H5             28.5454989811      -13.8020347482      -32.9552357511  IM1       119             0.0000000000
      6802       359  IM1       C4             25.4750602317      -14.5231260497      -32.5511026776  IM1       119             0.0000000000
      6803       359  IM1       DC4            25.4744577634      -14.5223970497      -32.5455343367  IM1       119             0.0000000000
      6804       359  IM1       H6             24.4735634202      -14.8386117150      -32.8436311919  IM1       119             0.0000000000
      6805       359  IM1       N2             26.5255913277      -14.4076757148      -33.3533966233  IM1       119             0.0000000000
      6806       359  IM1       DN2            26.5262558111      -14.4088812817      -33.3499059815  IM1       119             0.0000000000
      6807       359  IM1       H7             26.5513319694      -14.5886197153      -34.3365531155  IM1       119             0.0000000000
      6808       359  IM1       LPN21          26.5299699464      -14.4654311737      -33.6477520796  IM1       119             0.0000000000
      6809       360  IM1       C1             -3.6371898409       13.1515594800       26.8023860865  IM1       120             0.0000000000
      6810       360  IM1       DC1            -3.6406257992       13.1741758696       26.8079038707  IM1       120             0.0000000000
      6811       360  IM1       H1             -3.9752630138       13.0634444613       27.8570250175  IM1       120             0.0000000000
      6812       360  IM1       H2             -3.2653837990       12.1626823491       26.4585790364  IM1       120             0.0000000000
      6813       360  IM1       H3             -4.4818850560       13.4876927006       26.1637739572  IM1       120             0.0000000000
      6814       360  IM1       N1             -2.5935986996       14.1055150830       26.7123419031  IM1       120             0.0000000000
      6815       360  IM1       DN1            -2.5896554272       14.1229322055       26.7108190811  IM1       120             0.0000000000
      6816       360  IM1       C2             -2.0904733933       14.8663154994       27.7431472309  IM1       120             0.0000000000
      6817       360  IM1       DC2            -2.1029958071       14.8710378391       27.7466986390  IM1       120             0.0000000000
      6818       360  IM1       H4             -2.4153673623       14.7264544539       28.7667544782  IM1       120             0.0000000000
      6819       360  IM1       C3             -1.1319590452       15.6746235846       27.1802630273  IM1       120             0.0000000000
      6820       360  IM1       DC3            -1.1303297659       15.6735731181       27.1786399074  IM1       120             0.0000000000
      6821       360  IM1       H5             -0.4776862205       16.3750211062       27.6845044203  IM1       120             0.0000000000
      6822       360  IM1       C4             -1.9517012083       14.4978325236       25.5790184131  IM1       120             0.0000000000
      6823       360  IM1       DC4            -1.9588114608       14.5045178086       25.5848584811  IM1       120             0.0000000000
      6824       360  IM1       H6             -2.1627512376       14.0482981564       24.6087211711  IM1       120             0.0000000000
      6825       360  IM1       N2             -1.0697858200       15.4581177778       25.8294770483  IM1       120             0.0000000000
      6826       360  IM1       DN2            -1.0658733843       15.4649046530       25.8267857971  IM1       120             0.0000000000
      6827       360  IM1       H7             -0.4493309496       15.8856638416       25.1720273415  IM1       120             0.0000000000
      6828       360  IM1       LPN21          -0.8959935431       15.5950232487       25.6268613123  IM1       120             0.0000000000
      6829       361  IM1       C1            -29.5950055404      -14.1036153174       12.8298123238  IM1       121             0.0000000000
      6830       361  IM1       DC1           -29.6060268055      -14.1019730749       12.8308114036  IM1       121             0.0000000000
      6831       361  IM1       H1            -30.6829032209      -13.9768989221       12.6434186765  IM1       121             0.0000000000
      6832       361  IM1       H2            -29.3749547440      -13.9652735936       13.9099790774  IM1       121             0.0000000000
      6833       361  IM1       H3            -29.2681941560      -15.1099154038       12.4908795049  IM1       121             0.0000000000
      6834       361  IM1       N1            -28.8653539760      -13.1214276669       12.1022180710  IM1       121             0.0000000000
      6835       361  IM1       DN1           -28.8682709864      -13.1203095698       12.0999321620  IM1       121             0.0000000000
      6836       361  IM1       C2            -29.3972831710      -12.1751355677       11.2550749031  IM1       121             0.0000000000
      6837       361  IM1       DC2           -29.3989520035      -12.1778846690       11.2619064152  IM1       121             0.0000000000
      6838       361  IM1       H4            -30.4667745006      -12.0665539089       11.1235936524  IM1       121             0.0000000000
      6839       361  IM1       C3            -28.3222994667      -11.5084841523       10.7128079898  IM1       121             0.0000000000
      6840       361  IM1       DC3           -28.3225893328      -11.5024234773       10.7068214495  IM1       121             0.0000000000
      6841       361  IM1       H5            -28.3196677265      -10.6558894081       10.0450024223  IM1       121             0.0000000000
      6842       361  IM1       C4            -27.5115703203      -12.9856268591       12.0435041051  IM1       121             0.0000000000
      6843       361  IM1       DC4           -27.5266348569      -12.9861191194       12.0386244913  IM1       121             0.0000000000
      6844       361  IM1       H6            -26.8371461689      -13.5898535153       12.6502678251  IM1       121             0.0000000000
      6845       361  IM1       N2            -27.1564547551      -12.0281891120       11.1905998584  IM1       121             0.0000000000
      6846       361  IM1       DN2           -27.1579814507      -12.0235833023       11.1806095127  IM1       121             0.0000000000
      6847       361  IM1       H7            -26.2278120113      -11.6951800701       11.0271139803  IM1       121             0.0000000000
      6848       361  IM1       LPN21         -26.8759097693      -11.9474899069       11.1214467731  IM1       121             0.0000000000
      6849       362  IM1       C1              2.3205755433      -20.2358764081      -14.2757917539  IM1       122             0.0000000000
      6850       362  IM1       DC1             2.3237198321      -20.2441762388      -14.2630574589  IM1       122             0.0000000000
      6851       362  IM1       H1              2.7843814611      -21.2434133808      -14.2119613537  IM1       122             0.0000000000
      6852       362  IM1       H2              2.3688868051      -19.8614335457      -15.3206743142  IM1       122             0.0000000000
      6853       362  IM1       H3              1.2671383111      -20.2770156602      -13.9252228429  IM1       122             0.0000000000
      6854       362  IM1       N1              3.0449577208      -19.3478026959      -13.4438035519  IM1       122             0.0000000000
      6855       362  IM1       DN1             3.0467190686      -19.3501320191      -13.4349491931  IM1       122             0.0000000000
      6856       362  IM1       C2              4.1537968596      -19.6627008696      -12.6892181861  IM1       122             0.0000000000
      6857       362  IM1       DC2             4.1425092449      -19.6761601898      -12.6861001132  IM1       122             0.0000000000
      6858       362  IM1       H4              4.6138803907      -20.6424853466      -12.7243539664  IM1       122             0.0000000000
      6859       362  IM1       C3              4.4932563841      -18.5074003354      -12.0305044743  IM1       122             0.0000000000
      6860       362  IM1       DC3             4.4891565377      -18.5159810303      -12.0219073369  IM1       122             0.0000000000
      6861       362  IM1       H5              5.3410999282      -18.3357763399      -11.3788945227  IM1       122             0.0000000000
      6862       362  IM1       C4              2.7521874839      -18.0420650216      -13.2055936541  IM1       122             0.0000000000
      6863       362  IM1       DC4             2.7555964215      -18.0585283201      -13.1998923843  IM1       122             0.0000000000
      6864       362  IM1       H6              1.9311219860      -17.5210813734      -13.6980644518  IM1       122             0.0000000000
      6865       362  IM1       N2              3.5954861554      -17.5207847091      -12.3276060046  IM1       122             0.0000000000
      6866       362  IM1       DN2             3.5969778954      -17.5265210729      -12.3201885977  IM1       122             0.0000000000
      6867       362  IM1       H7              3.6252046492      -16.5674342112      -12.0272068715  IM1       122             0.0000000000
      6868       362  IM1       LPN21           3.5853367336      -17.2409878668      -12.2198529711  IM1       122             0.0000000000
      6869       363  IM1       C1             25.3476910330      -30.7970405567      -35.7539153750  IM1       123             0.0000000000
      6870       363  IM1       DC1            25.3381061421      -30.7987355963      -35.7537494322  IM1       123             0.0000000000
      6871       363  IM1       H1             24.2581575025      -30.7615502026      -35.9683404699  IM1       123             0.0000000000
      6872       363  IM1       H2             25.8738243811      -31.2986126873      -36.5941118388  IM1       123             0.0000000000
      6873       363  IM1       H3             25.7473492404      -29.7783849403      -35.5617304267  IM1       123             0.0000000000
      6874       363  IM1       N1             25.6165676033      -31.6008793080      -34.6667768975  IM1       123             0.0000000000
      6875       363  IM1       DN1            25.6210658011      -31.5974313344      -34.6677656651  IM1       123             0.0000000000
      6876       363  IM1       C2             24.7213886320      -32.4339733189      -34.0556280298  IM1       123             0.0000000000
      6877       363  IM1       DC2            24.7130150690      -32.4129227481      -34.0715821902  IM1       123             0.0000000000
      6878       363  IM1       H4             23.6786715759      -32.4292430580      -34.3482160774  IM1       123             0.0000000000
      6879       363  IM1       C3             25.4639623080      -33.1850170990      -33.1749824099  IM1       123             0.0000000000
      6880       363  IM1       DC3            25.4486735108      -33.1704861444      -33.1824634365  IM1       123             0.0000000000
      6881       363  IM1       H5             25.1199714514      -33.9540444668      -32.4944266089  IM1       123             0.0000000000
      6882       363  IM1       C4             26.8502946131      -31.8883339145      -34.1886488679  IM1       123             0.0000000000
      6883       363  IM1       DC4            26.8438779899      -31.8836645529      -34.1994689232  IM1       123             0.0000000000
      6884       363  IM1       H6             27.7510366051      -31.3958838696      -34.5550595899  IM1       123             0.0000000000
      6885       363  IM1       N2             26.7825206858      -32.8248646882      -33.2613732966  IM1       123             0.0000000000
      6886       363  IM1       DN2            26.7746372943      -32.8170488448      -33.2676163005  IM1       123             0.0000000000
      6887       363  IM1       H7             27.5516210728      -33.2225733788      -32.7610610021  IM1       123             0.0000000000
      6888       363  IM1       LPN21          27.0150958241      -32.9319913285      -33.1050637066  IM1       123             0.0000000000
      6889       364  IM1       C1            -11.9693635404       18.4685396433      -30.4467680483  IM1       124             0.0000000000
      6890       364  IM1       DC1           -11.9677460511       18.4933966261      -30.4591055098  IM1       124             0.0000000000
      6891       364  IM1       H1            -11.1490123049       19.2166032067      -30.4885503082  IM1       124             0.0000000000
      6892       364  IM1       H2            -12.4500788748       18.3644093263      -31.4429561055  IM1       124             0.0000000000
      6893       364  IM1       H3            -11.5613775602       17.4848094570      -30.1303136906  IM1       124             0.0000000000
      6894       364  IM1       N1            -12.9555083745       18.8771876123      -29.4979144318  IM1       124             0.0000000000
      6895       364  IM1       DN1           -12.9503943003       18.8856992568      -29.5055719664  IM1       124             0.0000000000
      6896       364  IM1       C2            -12.9555059292       20.0362669605      -28.7462656401  IM1       124             0.0000000000
      6897       364  IM1       DC2           -12.9311960286       20.0425617910      -28.7661799680  IM1       124             0.0000000000
      6898       364  IM1       H4            -12.1436401110       20.7522159148      -28.7806165957  IM1       124             0.0000000000
      6899       364  IM1       C3            -14.1069391389       19.9944877575      -27.9880324732  IM1       124             0.0000000000
      6900       364  IM1       DC3           -14.0915302689       20.0117426788      -28.0071664785  IM1       124             0.0000000000
      6901       364  IM1       H5            -14.4726222903       20.7046346073      -27.2566937798  IM1       124             0.0000000000
      6902       364  IM1       C4            -14.0983482385       18.2071433892      -29.1864992011  IM1       124             0.0000000000
      6903       364  IM1       DC4           -14.0821554605       18.2266937325      -29.1987403541  IM1       124             0.0000000000
      6904       364  IM1       H6            -14.3611898770       17.2466628398      -29.6297726916  IM1       124             0.0000000000
      6905       364  IM1       N2            -14.8212943878       18.8796535980      -28.3013923655  IM1       124             0.0000000000
      6906       364  IM1       DN2           -14.8107635352       18.8979859080      -28.3117567381  IM1       124             0.0000000000
      6907       364  IM1       H7            -15.6860734080       18.5835209851      -27.8958523283  IM1       124             0.0000000000
      6908       364  IM1       LPN21         -15.0893054249       18.7971306748      -28.1948088249  IM1       124             0.0000000000
      6909       365  IM1       C1             -4.6295770144       31.2862416599        2.5749947516  IM1       125             0.0000000000
      6910       365  IM1       DC1            -4.6366656727       31.2944728347        2.5938219832  IM1       125             0.0000000000
      6911       365  IM1       H1             -4.2558926797       31.4365419755        3.6104129437  IM1       125             0.0000000000
      6912       365  IM1       H2             -5.0910585746       30.2800382959        2.4805989898  IM1       125             0.0000000000
      6913       365  IM1       H3             -5.3626552035       32.0745560756        2.3002626110  IM1       125             0.0000000000
      6914       365  IM1       N1             -3.5408702458       31.3395057905        1.6646453346  IM1       125             0.0000000000
      6915       365  IM1       DN1            -3.5592817566       31.3394262167        1.6651827449  IM1       125             0.0000000000
      6916       365  IM1       C2             -2.2190034573       31.5482363224        1.9808818663  IM1       125             0.0000000000
      6917       365  IM1       DC2            -2.2506033690       31.5486695325        1.9829047968  IM1       125             0.0000000000
      6918       365  IM1       H4             -1.8794755782       31.6857393470        3.0000495363  IM1       125             0.0000000000
      6919       365  IM1       C3             -1.5297381026       31.5048348529        0.7879367307  IM1       125             0.0000000000
      6920       365  IM1       DC3            -1.5405425366       31.5078745299        0.7924427470  IM1       125             0.0000000000
      6921       365  IM1       H5             -0.4648962046       31.6222351500        0.6291352745  IM1       125             0.0000000000
      6922       365  IM1       C4             -3.6038328267       31.1819590033        0.3144590699  IM1       125             0.0000000000
      6923       365  IM1       DC4            -3.6051285060       31.1812312787        0.3251787258  IM1       125             0.0000000000
      6924       365  IM1       H6             -4.5414257097       30.9981029903       -0.2101517893  IM1       125             0.0000000000
      6925       365  IM1       N2             -2.4036324249       31.2794236933       -0.2416667076  IM1       125             0.0000000000
      6926       365  IM1       DN2            -2.4075647397       31.2782431084       -0.2397815416  IM1       125             0.0000000000
      6927       365  IM1       H7             -2.1882528247       31.2052824048       -1.2153785219  IM1       125             0.0000000000
      6928       365  IM1       LPN21          -2.3434051328       31.2557805603       -0.5346064208  IM1       125             0.0000000000
      6929       366  IM1       C1             -8.7535000583       21.4306040903        4.6805063664  IM1       126             0.0000000000
      6930       366  IM1       DC1            -8.7664481189       21.4358328036        4.6928298624  IM1       126             0.0000000000
      6931       366  IM1       H1             -9.7590159869       21.8696107964        4.5057727711  IM1       126             0.0000000000
      6932       366  IM1       H2             -8.8207558705       20.5868404489        5.4001316683  IM1       126             0.0000000000
      6933       366  IM1       H3             -8.3258291498       21.0951865270        3.7115307977  IM1       126             0.0000000000
      6934       366  IM1       N1             -7.8791046071       22.4037484768        5.2124362655  IM1       126             0.0000000000
      6935       366  IM1       DN1            -7.8766562065       22.4013904427        5.2193081833  IM1       126             0.0000000000
      6936       366  IM1       C2             -8.2064566088       23.7075792847        5.4913529790  IM1       126             0.0000000000
      6937       366  IM1       DC2            -8.2145448572       23.6906833030        5.4882739009  IM1       126             0.0000000000
      6938       366  IM1       H4             -9.1957668351       24.1046593512        5.3003511545  IM1       126             0.0000000000
      6939       366  IM1       C3             -7.0584501476       24.2799672782        5.9881613003  IM1       126             0.0000000000
      6940       366  IM1       DC3            -7.0610334207       24.2770202162        5.9847950081  IM1       126             0.0000000000
      6941       366  IM1       H5             -6.9131802193       25.2947958291        6.3373155071  IM1       126             0.0000000000
      6942       366  IM1       C4             -6.5699543352       22.2371539900        5.5476735216  IM1       126             0.0000000000
      6943       366  IM1       DC4            -6.5804028111       22.2383119236        5.5541035766  IM1       126             0.0000000000
      6944       366  IM1       H6             -6.0470825965       21.2888816654        5.4232358132  IM1       126             0.0000000000
      6945       366  IM1       N2             -6.0518042572       23.3586484040        6.0285883675  IM1       126             0.0000000000
      6946       366  IM1       DN2            -6.0548040914       23.3586714201        6.0307182325  IM1       126             0.0000000000
      6947       366  IM1       H7             -5.1145146435       23.5022730903        6.3461732058  IM1       126             0.0000000000
      6948       366  IM1       LPN21          -5.7700927044       23.3955801261        6.1248933462  IM1       126             0.0000000000
      6949       367  IM1       C1            -20.0455346616      -32.9638200153       -3.9032587308  IM1       127             0.0000000000
      6950       367  IM1       DC1           -20.0352396148      -32.9528857805       -3.9017909014  IM1       127             0.0000000000
      6951       367  IM1       H1            -19.0917568746      -33.5335429254       -3.8965700777  IM1       127             0.0000000000
      6952       367  IM1       H2            -20.6270649586      -33.2193365650       -4.8147711040  IM1       127             0.0000000000
      6953       367  IM1       H3            -20.6333208184      -33.2135819553       -2.9941672013  IM1       127             0.0000000000
      6954       367  IM1       N1            -19.7698710150      -31.5625057143       -3.9102823913  IM1       127             0.0000000000
      6955       367  IM1       DN1           -19.7696135402      -31.5515582449       -3.9094162025  IM1       127             0.0000000000
      6956       367  IM1       C2            -18.5249502101      -30.9730167973       -3.9148270048  IM1       127             0.0000000000
      6957       367  IM1       DC2           -18.5348135182      -30.9741159010       -3.9168674740  IM1       127             0.0000000000
      6958       367  IM1       H4            -17.6181367469      -31.5650019830       -3.9033429779  IM1       127             0.0000000000
      6959       367  IM1       C3            -18.7422862447      -29.6131833044       -3.9262536418  IM1       127             0.0000000000
      6960       367  IM1       DC3           -18.7442760566      -29.6031842099       -3.9193175035  IM1       127             0.0000000000
      6961       367  IM1       H5            -18.0126955611      -28.8128250214       -3.9298666217  IM1       127             0.0000000000
      6962       367  IM1       C4            -20.6791444434      -30.5485671040       -3.9140884174  IM1       127             0.0000000000
      6963       367  IM1       DC4           -20.6722571724      -30.5512784273       -3.9119063588  IM1       127             0.0000000000
      6964       367  IM1       H6            -21.7538279489      -30.7306294397       -3.9111441183  IM1       127             0.0000000000
      6965       367  IM1       N2            -20.0829912631      -29.3601721312       -3.9171494851  IM1       127             0.0000000000
      6966       367  IM1       DN2           -20.0800121800      -29.3556418151       -3.9127401732  IM1       127             0.0000000000
      6967       367  IM1       H7            -20.5328916669      -28.4670959199       -3.9150260422  IM1       127             0.0000000000
      6968       367  IM1       LPN21         -20.2207173457      -29.0936570720       -3.9160317393  IM1       127             0.0000000000
      6969       368  IM1       C1            -21.8936792037        0.3051889179        5.8840338460  IM1       128             0.0000000000
      6970       368  IM1       DC1           -21.8953040751        0.3038968139        5.8623116163  IM1       128             0.0000000000
      6971       368  IM1       H1            -21.2115996150        1.0855784844        5.4839331569  IM1       128             0.0000000000
      6972       368  IM1       H2            -22.0012786444        0.4388673869        6.9817011125  IM1       128             0.0000000000
      6973       368  IM1       H3            -22.8871358657        0.3707767141        5.3910195442  IM1       128             0.0000000000
      6974       368  IM1       N1            -21.3457864853       -0.9853014680        5.6501547453  IM1       128             0.0000000000
      6975       368  IM1       DN1           -21.3568258002       -0.9914625884        5.6468666372  IM1       128             0.0000000000
      6976       368  IM1       C2            -20.1492623238       -1.2645953947        5.0349000979  IM1       128             0.0000000000
      6977       368  IM1       DC2           -20.1731908138       -1.2561793744        5.0304215397  IM1       128             0.0000000000
      6978       368  IM1       H4            -19.4642297306       -0.4801254497        4.7378710560  IM1       128             0.0000000000
      6979       368  IM1       C3            -20.0284295266       -2.6401055861        5.0497765740  IM1       128             0.0000000000
      6980       368  IM1       DC3           -20.0440292086       -2.6393997984        5.0334221259  IM1       128             0.0000000000
      6981       368  IM1       H5            -19.1854321364       -3.2409685830        4.7316444331  IM1       128             0.0000000000
      6982       368  IM1       C4            -21.9060752515       -2.1818303383        5.9818105058  IM1       128             0.0000000000
      6983       368  IM1       DC4           -21.9078334401       -2.1781489894        5.9753055698  IM1       128             0.0000000000
      6984       368  IM1       H6            -22.8388816219       -2.2499067640        6.5415764172  IM1       128             0.0000000000
      6985       368  IM1       N2            -21.1531436672       -3.2033871074        5.5912814871  IM1       128             0.0000000000
      6986       368  IM1       DN2           -21.1634490507       -3.2092974860        5.5817387967  IM1       128             0.0000000000
      6987       368  IM1       H7            -21.2994180222       -4.1690571914        5.8059558964  IM1       128             0.0000000000
      6988       368  IM1       LPN21         -21.2214124413       -3.4941973169        5.6190086670  IM1       128             0.0000000000
      6989       369  IM1       C1            -14.2050715898       -2.9751449843      -14.4196736545  IM1       129             0.0000000000
      6990       369  IM1       DC1           -14.2169266052       -2.9736653127      -14.4228035565  IM1       129             0.0000000000
      6991       369  IM1       H1            -13.2823470188       -2.8525353742      -15.0261942650  IM1       129             0.0000000000
      6992       369  IM1       H2            -13.9948136844       -3.6435318410      -13.5574836386  IM1       129             0.0000000000
      6993       369  IM1       H3            -14.5600449940       -1.9838633434      -14.0651661219  IM1       129             0.0000000000
      6994       369  IM1       N1            -15.2192081601       -3.5769364996      -15.2081937420  IM1       129             0.0000000000
      6995       369  IM1       DN1           -15.2329052267       -3.5750395719      -15.1991053403  IM1       129             0.0000000000
      6996       369  IM1       C2            -15.0859014060       -4.0416984946      -16.4943231971  IM1       129             0.0000000000
      6997       369  IM1       DC2           -15.0834823528       -4.0221189480      -16.4764928226  IM1       129             0.0000000000
      6998       369  IM1       H4            -14.1385256827       -4.0003114895      -17.0174439811  IM1       129             0.0000000000
      6999       369  IM1       C3            -16.3285762292       -4.5026518854      -16.8629316707  IM1       129             0.0000000000
      7000       369  IM1       DC3           -16.3177384714       -4.4784087024      -16.8641334943  IM1       129             0.0000000000
      7001       369  IM1       H5            -16.6289143270       -4.9300135884      -17.8116402676  IM1       129             0.0000000000
      7002       369  IM1       C4            -16.5101796877       -3.7872792960      -14.8419735591  IM1       129             0.0000000000
      7003       369  IM1       DC4           -16.5073630823       -3.7827363182      -14.8288027473  IM1       129             0.0000000000
      7004       369  IM1       H6            -16.8932529682       -3.5404641050      -13.8518033094  IM1       129             0.0000000000
      7005       369  IM1       N2            -17.2074929135       -4.3235359489      -15.8250099122  IM1       129             0.0000000000
      7006       369  IM1       DN2           -17.1987041791       -4.3127166787      -15.8179955607  IM1       129             0.0000000000
      7007       369  IM1       H7            -18.1687800471       -4.5981742354      -15.8026300465  IM1       129             0.0000000000
      7008       369  IM1       LPN21         -17.4999103345       -4.3897732006      -15.8147786646  IM1       129             0.0000000000
      7009       370  IM1       C1             -4.7615891367      -11.8716575348      -32.0993687598  IM1       130             0.0000000000
      7010       370  IM1       DC1            -4.7667104752      -11.8617630557      -32.0892399031  IM1       130             0.0000000000
      7011       370  IM1       H1             -4.6828905684      -11.2076900362      -32.9866537751  IM1       130             0.0000000000
      7012       370  IM1       H2             -4.5558736078      -12.9241605908      -32.3896090721  IM1       130             0.0000000000
      7013       370  IM1       H3             -4.0391665725      -11.5307605102      -31.3272186078  IM1       130             0.0000000000
      7014       370  IM1       N1             -6.0700609800      -11.7981327048      -31.5571023168  IM1       130             0.0000000000
      7015       370  IM1       DN1            -6.0737630842      -11.7986437568      -31.5466117730  IM1       130             0.0000000000
      7016       370  IM1       C2             -7.0863726307      -10.9902812318      -32.0068455313  IM1       130             0.0000000000
      7017       370  IM1       DC2            -7.0809763312      -10.9988662479      -32.0019350032  IM1       130             0.0000000000
      7018       370  IM1       H4             -6.9445649247      -10.3213106893      -32.8466419279  IM1       130             0.0000000000
      7019       370  IM1       C3             -8.1580682138      -11.2378158307      -31.1774802974  IM1       130             0.0000000000
      7020       370  IM1       DC3            -8.1625056905      -11.2446696456      -31.1700144844  IM1       130             0.0000000000
      7021       370  IM1       H5             -9.1306169228      -10.7614149729      -31.1864374937  IM1       130             0.0000000000
      7022       370  IM1       C4             -6.5540028181      -12.4821732171      -30.4831052012  IM1       130             0.0000000000
      7023       370  IM1       DC4            -6.5480561856      -12.4773240642      -30.4822705194  IM1       130             0.0000000000
      7024       370  IM1       H6             -5.9464768916      -13.1941486530      -29.9244432038  IM1       130             0.0000000000
      7025       370  IM1       N2             -7.8178055350      -12.1598265435      -30.2285056251  IM1       130             0.0000000000
      7026       370  IM1       DN2            -7.8213895875      -12.1615638917      -30.2246357074  IM1       130             0.0000000000
      7027       370  IM1       H7             -8.3908505986      -12.5153305794      -29.4901044896  IM1       130             0.0000000000
      7028       370  IM1       LPN21          -7.9876075764      -12.2701365656      -30.0071485250  IM1       130             0.0000000000
      7029       371  IM1       C1             17.7916847667      -13.5062244581       28.7127511775  IM1       131             0.0000000000
      7030       371  IM1       DC1            17.8020695118      -13.5225945333       28.7013768879  IM1       131             0.0000000000
      7031       371  IM1       H1             18.0381979506      -13.0638225021       27.7238969115  IM1       131             0.0000000000
      7032       371  IM1       H2             18.6927014680      -13.5034201212       29.3627373634  IM1       131             0.0000000000
      7033       371  IM1       H3             16.9852787068      -12.9094529234       29.1901336262  IM1       131             0.0000000000
      7034       371  IM1       N1             17.3395482725      -14.8555167707       28.5426455263  IM1       131             0.0000000000
      7035       371  IM1       DN1            17.3414523698      -14.8649530058       28.5480601487  IM1       131             0.0000000000
      7036       371  IM1       C2             17.2606149161      -15.5497283413       27.3551327307  IM1       131             0.0000000000
      7037       371  IM1       DC2            17.2762539315      -15.5416032602       27.3670845015  IM1       131             0.0000000000
      7038       371  IM1       H4             17.4486066185      -15.0781756477       26.3984790959  IM1       131             0.0000000000
      7039       371  IM1       C3             16.7866875132      -16.8061082933       27.6697740248  IM1       131             0.0000000000
      7040       371  IM1       DC3            16.8064489939      -16.8119622233       27.6860969740  IM1       131             0.0000000000
      7041       371  IM1       H5             16.5393929609      -17.6182482135       26.9973432443  IM1       131             0.0000000000
      7042       371  IM1       C4             16.9558450055      -15.7229945297       29.5210843644  IM1       131             0.0000000000
      7043       371  IM1       DC4            16.9606465550      -15.7223313144       29.5172944785  IM1       131             0.0000000000
      7044       371  IM1       H6             16.9257208807      -15.4366174192       30.5723601073  IM1       131             0.0000000000
      7045       371  IM1       N2             16.6390267106      -16.9156183812       29.0241780042  IM1       131             0.0000000000
      7046       371  IM1       DN2            16.6424036505      -16.9240452362       29.0287284968  IM1       131             0.0000000000
      7047       371  IM1       H7             16.2830514946      -17.6993344486       29.5331679562  IM1       131             0.0000000000
      7048       371  IM1       LPN21          16.5533780546      -17.1557134675       29.1823508756  IM1       131             0.0000000000
      7049       372  IM1       C1             23.5700051223      -12.9862881631      -16.2633628190  IM1       132             0.0000000000
      7050       372  IM1       DC1            23.5481819142      -12.9707369384      -16.2420869791  IM1       132             0.0000000000
      7051       372  IM1       H1             23.0898703974      -13.0847364749      -17.2604082423  IM1       132             0.0000000000
      7052       372  IM1       H2             23.7075531630      -14.0026183316      -15.8361924490  IM1       132             0.0000000000
      7053       372  IM1       H3             24.5545413653      -12.4836670223      -16.3746344516  IM1       132             0.0000000000
      7054       372  IM1       N1             22.7380352735      -12.2049621686      -15.3968586799  IM1       132             0.0000000000
      7055       372  IM1       DN1            22.7157013148      -12.1885496224      -15.3787327070  IM1       132             0.0000000000
      7056       372  IM1       C2             21.4828596341      -11.7170056957      -15.6847358882  IM1       132             0.0000000000
      7057       372  IM1       DC2            21.4688643668      -11.7093446921      -15.6571338574  IM1       132             0.0000000000
      7058       372  IM1       H4             21.0702658873      -11.8036885684      -16.6823036702  IM1       132             0.0000000000
      7059       372  IM1       C3             21.0266606623      -11.1047187530      -14.5450496459  IM1       132             0.0000000000
      7060       372  IM1       DC3            21.0111991873      -11.0942868869      -14.5019515345  IM1       132             0.0000000000
      7061       372  IM1       H5             20.0987554291      -10.5644027885      -14.4038422214  IM1       132             0.0000000000
      7062       372  IM1       C4             22.9810823287      -11.8673846015      -14.1003043572  IM1       132             0.0000000000
      7063       372  IM1       DC4            22.9710919345      -11.8658323581      -14.0946996281  IM1       132             0.0000000000
      7064       372  IM1       H6             23.9352513415      -12.0850167029      -13.6204108654  IM1       132             0.0000000000
      7065       372  IM1       N2             21.9464763628      -11.2331001374      -13.5486756952  IM1       132             0.0000000000
      7066       372  IM1       DN2            21.9294686453      -11.2282708878      -13.5271943083  IM1       132             0.0000000000
      7067       372  IM1       H7             21.9030372782      -10.8695480507      -12.6181151511  IM1       132             0.0000000000
      7068       372  IM1       LPN21          21.9254309484      -11.1401571910      -13.2642135725  IM1       132             0.0000000000
      7069       373  IM1       C1            -35.9210653955      -32.4801554755      -11.2985846037  IM1       133             0.0000000000
      7070       373  IM1       DC1           -35.9185520078      -32.4826503868      -11.2916896303  IM1       133             0.0000000000
      7071       373  IM1       H1            -36.7079880354      -32.7331352343      -12.0409288641  IM1       133             0.0000000000
      7072       373  IM1       H2            -34.9337774352      -32.4223866194      -11.8047923107  IM1       133             0.0000000000
      7073       373  IM1       H3            -36.1729951065      -31.5088571866      -10.8216862328  IM1       133             0.0000000000
      7074       373  IM1       N1            -35.8635979480      -33.4930081663      -10.2926164539  IM1       133             0.0000000000
      7075       373  IM1       DN1           -35.8499212557      -33.4836355257      -10.2802224719  IM1       133             0.0000000000
      7076       373  IM1       C2            -36.6662721490      -34.5983999210      -10.2133209532  IM1       133             0.0000000000
      7077       373  IM1       DC2           -36.6241318875      -34.5898687163      -10.2145150397  IM1       133             0.0000000000
      7078       373  IM1       H4            -37.4501123411      -34.7921145665      -10.9350952873  IM1       133             0.0000000000
      7079       373  IM1       C3            -36.3258884923      -35.2412053871       -9.0421810494  IM1       133             0.0000000000
      7080       373  IM1       DC3           -36.3019645878      -35.2441994648       -9.0273440927  IM1       133             0.0000000000
      7081       373  IM1       H5            -36.6771241334      -36.1825072472       -8.6378626938  IM1       133             0.0000000000
      7082       373  IM1       C4            -35.0475616940      -33.5396547977       -9.2019212258  IM1       133             0.0000000000
      7083       373  IM1       DC4           -35.0443277496      -33.5346291144       -9.1987438526  IM1       133             0.0000000000
      7084       373  IM1       H6            -34.2973116491      -32.7742141690       -9.0036146096  IM1       133             0.0000000000
      7085       373  IM1       N2            -35.3065373410      -34.5872348537       -8.4285742096  IM1       133             0.0000000000
      7086       373  IM1       DN2           -35.3039826600      -34.5834642997       -8.4193353963  IM1       133             0.0000000000
      7087       373  IM1       H7            -34.8486307999      -34.8529344399       -7.5802079388  IM1       133             0.0000000000
      7088       373  IM1       LPN21         -35.1665559175      -34.6596384549       -8.1733039223  IM1       133             0.0000000000
      7089       374  IM1       C1             -5.2158921464       16.5867473284       24.5741445928  IM1       134             0.0000000000
      7090       374  IM1       DC1            -5.2246382059       16.5815685324       24.5739150158  IM1       134             0.0000000000
      7091       374  IM1       H1             -5.4982088708       15.6368545707       24.0718279437  IM1       134             0.0000000000
      7092       374  IM1       H2             -6.0823128188       16.9810539495       25.1469958030  IM1       134             0.0000000000
      7093       374  IM1       H3             -4.3461694092       16.4104150699       25.2425832929  IM1       134             0.0000000000
      7094       374  IM1       N1             -4.8417898917       17.5501401140       23.5913098469  IM1       134             0.0000000000
      7095       374  IM1       DN1            -4.8476917888       17.5571182493       23.6019976352  IM1       134             0.0000000000
      7096       374  IM1       C2             -4.8005744138       17.3508644743       22.2312971861  IM1       134             0.0000000000
      7097       374  IM1       DC2            -4.8041065320       17.3561491801       22.2510720368  IM1       134             0.0000000000
      7098       374  IM1       H4             -5.0853131924       16.4122306661       21.7721900069  IM1       134             0.0000000000
      7099       374  IM1       C3             -4.3040001163       18.5171362885       21.6945491789  IM1       134             0.0000000000
      7100       374  IM1       DC3            -4.3083665381       18.5332791159       21.6924594131  IM1       134             0.0000000000
      7101       374  IM1       H5             -4.1330783904       18.7495009328       20.6506711037  IM1       134             0.0000000000
      7102       374  IM1       C4             -4.4135435838       18.8251085715       23.8151700278  IM1       134             0.0000000000
      7103       374  IM1       DC4            -4.4232862622       18.8276415890       23.8180114125  IM1       134             0.0000000000
      7104       374  IM1       H6             -4.3323135727       19.2420807730       24.8189807014  IM1       134             0.0000000000
      7105       374  IM1       N2             -4.1214133772       19.4520599849       22.6805807804  IM1       134             0.0000000000
      7106       374  IM1       DN2            -4.1344088431       19.4645793224       22.6789039529  IM1       134             0.0000000000
      7107       374  IM1       H7             -3.7672735193       20.3818977608       22.5806474454  IM1       134             0.0000000000
      7108       374  IM1       LPN21          -4.0345341350       19.7379193563       22.6534437761  IM1       134             0.0000000000
      7109       375  IM1       C1            -22.9321410962       12.1303829716       -9.8465073315  IM1       135             0.0000000000
      7110       375  IM1       DC1           -22.9338569220       12.1348229023       -9.8307070042  IM1       135             0.0000000000
      7111       375  IM1       H1            -23.2738839980       11.2183485386       -9.3119739061  IM1       135             0.0000000000
      7112       375  IM1       H2            -23.6492431318       12.9621766787       -9.6785641881  IM1       135             0.0000000000
      7113       375  IM1       H3            -21.9144901457       12.4161406081       -9.5043814505  IM1       135             0.0000000000
      7114       375  IM1       N1            -22.8814829663       11.8368325770      -11.2325862440  IM1       135             0.0000000000
      7115       375  IM1       DN1           -22.8699861060       11.8423047003      -11.2244879143  IM1       135             0.0000000000
      7116       375  IM1       C2            -23.2631996589       10.6595528305      -11.8391450352  IM1       135             0.0000000000
      7117       375  IM1       DC2           -23.2553297512       10.6693936612      -11.8265111825  IM1       135             0.0000000000
      7118       375  IM1       H4            -23.5608231286        9.7985212837      -11.2535394102  IM1       135             0.0000000000
      7119       375  IM1       C3            -23.1304957003       10.8683213794      -13.1937175352  IM1       135             0.0000000000
      7120       375  IM1       DC3           -23.1260234106       10.8694090830      -13.1851873096  IM1       135             0.0000000000
      7121       375  IM1       H5            -23.3125470784       10.1754363159      -14.0059099916  IM1       135             0.0000000000
      7122       375  IM1       C4            -22.5765237554       12.7077887431      -12.2273642447  IM1       135             0.0000000000
      7123       375  IM1       DC4           -22.5756009731       12.7015348389      -12.2164539226  IM1       135             0.0000000000
      7124       375  IM1       H6            -22.2957905225       13.7419031316      -12.0276237044  IM1       135             0.0000000000
      7125       375  IM1       N2            -22.7156224832       12.1470431436      -13.4227780137  IM1       135             0.0000000000
      7126       375  IM1       DN2           -22.7166277998       12.1467482455      -13.4231669726  IM1       135             0.0000000000
      7127       375  IM1       H7            -22.5674394427       12.5902087139      -14.3068855093  IM1       135             0.0000000000
      7128       375  IM1       LPN21         -22.6645035497       12.2801404837      -13.6867324656  IM1       135             0.0000000000
      7129       376  IM1       C1            -23.9146210436      -17.1744601374       25.2802499159  IM1       136             0.0000000000
      7130       376  IM1       DC1           -23.9218647332      -17.1641259269       25.2853606494  IM1       136             0.0000000000
      7131       376  IM1       H1            -23.4046831743      -16.8540020813       24.3466595319  IM1       136             0.0000000000
      7132       376  IM1       H2            -24.4161374783      -18.1529458346       25.1209765455  IM1       136             0.0000000000
      7133       376  IM1       H3            -23.1618600904      -17.2527946711       26.0935983334  IM1       136             0.0000000000
      7134       376  IM1       N1            -24.8928676332      -16.2043312806       25.6239577220  IM1       136             0.0000000000
      7135       376  IM1       DN1           -24.9002177706      -16.2016494560       25.6352398092  IM1       136             0.0000000000
      7136       376  IM1       C2            -25.1880506034      -15.0563024777       24.9252630397  IM1       136             0.0000000000
      7137       376  IM1       DC2           -25.1961208578      -15.0659741853       24.9439503718  IM1       136             0.0000000000
      7138       376  IM1       H4            -24.6980354447      -14.8381229846       23.9844273192  IM1       136             0.0000000000
      7139       376  IM1       C3            -26.1307143434      -14.3844549938       25.6672605221  IM1       136             0.0000000000
      7140       376  IM1       DC3           -26.1398583377      -14.3790527644       25.6738032255  IM1       136             0.0000000000
      7141       376  IM1       H5            -26.5952756558      -13.4300876330       25.4521913992  IM1       136             0.0000000000
      7142       376  IM1       C4            -25.6766914839      -16.1968118036       26.7341202997  IM1       136             0.0000000000
      7143       376  IM1       DC4           -25.6755568495      -16.1964662038       26.7346995586  IM1       136             0.0000000000
      7144       376  IM1       H6            -25.6626529127      -17.0138098525       27.4555197083  IM1       136             0.0000000000
      7145       376  IM1       N2            -26.4358574078      -15.1072574659       26.7885029243  IM1       136             0.0000000000
      7146       376  IM1       DN2           -26.4419265502      -15.1064547959       26.7942927839  IM1       136             0.0000000000
      7147       376  IM1       H7            -27.0983250662      -14.8736642596       27.5002408083  IM1       136             0.0000000000
      7148       376  IM1       LPN21         -26.6320091446      -15.0397055623       27.0052083383  IM1       136             0.0000000000
      7149       377  IM1       C1            -23.5385338754       -7.4954597753      -19.6980824694  IM1       137             0.0000000000
      7150       377  IM1       DC1           -23.5435103483       -7.4968788678      -19.6957866092  IM1       137             0.0000000000
      7151       377  IM1       H1            -22.5330085009       -7.9674849261      -19.7188666063  IM1       137             0.0000000000
      7152       377  IM1       H2            -24.0680927594       -7.6854805941      -20.6560910693  IM1       137             0.0000000000
      7153       377  IM1       H3            -24.1130717138       -7.9007967555      -18.8378910926  IM1       137             0.0000000000
      7154       377  IM1       N1            -23.3987845084       -6.0906121957      -19.5398370336  IM1       137             0.0000000000
      7155       377  IM1       DN1           -23.4125865885       -6.0860583456      -19.5360466981  IM1       137             0.0000000000
      7156       377  IM1       C2            -22.2304574507       -5.3753444629      -19.4513581867  IM1       137             0.0000000000
      7157       377  IM1       DC2           -22.2497238099       -5.3799690948      -19.4530627143  IM1       137             0.0000000000
      7158       377  IM1       H4            -21.2650735005       -5.8624185214      -19.5120351263  IM1       137             0.0000000000
      7159       377  IM1       C3            -22.5895950269       -4.0631398165      -19.2444333831  IM1       137             0.0000000000
      7160       377  IM1       DC3           -22.6012226096       -4.0576913437      -19.2464369942  IM1       137             0.0000000000
      7161       377  IM1       H5            -21.9578707508       -3.1884788820      -19.1507227186  IM1       137             0.0000000000
      7162       377  IM1       C4            -24.4068945798       -5.1941730420      -19.3980804198  IM1       137             0.0000000000
      7163       377  IM1       DC4           -24.4103628422       -5.1976952377      -19.3931243809  IM1       137             0.0000000000
      7164       377  IM1       H6            -25.4550575295       -5.4887589280      -19.4497871551  IM1       137             0.0000000000
      7165       377  IM1       N2            -23.9457822323       -3.9642673871      -19.2054352445  IM1       137             0.0000000000
      7166       377  IM1       DN2           -23.9527254640       -3.9619150612      -19.2016610170  IM1       137             0.0000000000
      7167       377  IM1       H7            -24.4877614016       -3.1301261227      -19.1031272237  IM1       137             0.0000000000
      7168       377  IM1       LPN21         -24.1117047365       -3.7180415634      -19.1625101198  IM1       137             0.0000000000
      7169       378  IM1       C1             -8.7409437579       -4.8581528323      -28.2694023935  IM1       138             0.0000000000
      7170       378  IM1       DC1            -8.7513694224       -4.8630613905      -28.2708426193  IM1       138             0.0000000000
      7171       378  IM1       H1             -8.5860967676       -5.9569994449      -28.2157411273  IM1       138             0.0000000000
      7172       378  IM1       H2             -8.9076044891       -4.4462447577      -27.2511308479  IM1       138             0.0000000000
      7173       378  IM1       H3             -7.8558143529       -4.3828014989      -28.7436471052  IM1       138             0.0000000000
      7174       378  IM1       N1             -9.8732405979       -4.5831630092      -29.0649262810  IM1       138             0.0000000000
      7175       378  IM1       DN1            -9.8812493344       -4.5808244137      -29.0705412642  IM1       138             0.0000000000
      7176       378  IM1       C2            -10.6399735731       -5.5070754928      -29.7330861167  IM1       138             0.0000000000
      7177       378  IM1       DC2           -10.6306592377       -5.5089759927      -29.7310741993  IM1       138             0.0000000000
      7178       378  IM1       H4            -10.4587220936       -6.5708656061      -29.6415028432  IM1       138             0.0000000000
      7179       378  IM1       C3            -11.6008236013       -4.7808097020      -30.3950402710  IM1       138             0.0000000000
      7180       378  IM1       DC3           -11.6075788239       -4.7916228374      -30.3908575250  IM1       138             0.0000000000
      7181       378  IM1       H5            -12.4260941745       -5.1620942012      -30.9836314803  IM1       138             0.0000000000
      7182       378  IM1       C4            -10.3910240850       -3.3587392999      -29.3414445300  IM1       138             0.0000000000
      7183       378  IM1       DC4           -10.3891362328       -3.3659306015      -29.3381922870  IM1       138             0.0000000000
      7184       378  IM1       H6             -9.9660894205       -2.4384855174      -28.9406160047  IM1       138             0.0000000000
      7185       378  IM1       N2            -11.4555031281       -3.4548945169      -30.1238893562  IM1       138             0.0000000000
      7186       378  IM1       DN2           -11.4573644922       -3.4633923634      -30.1167249134  IM1       138             0.0000000000
      7187       378  IM1       H7            -12.0200406296       -2.7007336077      -30.4593572867  IM1       138             0.0000000000
      7188       378  IM1       LPN21         -11.6258762180       -3.2268747897      -30.2186522934  IM1       138             0.0000000000
      7189       379  IM1       C1              2.8250100472       -8.9659908976       20.0833000374  IM1       139             0.0000000000
      7190       379  IM1       DC1             2.8121885291       -8.9582124552       20.0813991725  IM1       139             0.0000000000
      7191       379  IM1       H1              2.7671142483       -7.8879819316       20.3457228757  IM1       139             0.0000000000
      7192       379  IM1       H2              3.6306916898       -9.1243400285       19.3348859518  IM1       139             0.0000000000
      7193       379  IM1       H3              3.0280901339       -9.5703149651       20.9931746998  IM1       139             0.0000000000
      7194       379  IM1       N1              1.5919183552       -9.3892097617       19.5132882592  IM1       139             0.0000000000
      7195       379  IM1       DN1             1.5860082795       -9.3960698038       19.5092569998  IM1       139             0.0000000000
      7196       379  IM1       C2              0.4638209373       -8.6247594037       19.3003061006  IM1       139             0.0000000000
      7197       379  IM1       DC2             0.4781028452       -8.6255088446       19.3058809526  IM1       139             0.0000000000
      7198       379  IM1       H4              0.4054000524       -7.5855695170       19.5995725061  IM1       139             0.0000000000
      7199       379  IM1       C3             -0.4529404893       -9.4530572580       18.6916794760  IM1       139             0.0000000000
      7200       379  IM1       DC3            -0.4494337809       -9.4530207196       18.6963923318  IM1       139             0.0000000000
      7201       379  IM1       H5             -1.4704297812       -9.2399858019       18.3880265566  IM1       139             0.0000000000
      7202       379  IM1       C4              1.3170892902      -10.6304208340       19.0386156674  IM1       139             0.0000000000
      7203       379  IM1       DC4             1.3184526856      -10.6274658868       19.0396211321  IM1       139             0.0000000000
      7204       379  IM1       H6              2.0301601771      -11.4530993005       19.0918138927  IM1       139             0.0000000000
      7205       379  IM1       N2              0.0927092500      -10.6930360259       18.5355352986  IM1       139             0.0000000000
      7206       379  IM1       DN2             0.0924603207      -10.6921556737       18.5392136891  IM1       139             0.0000000000
      7207       379  IM1       H7             -0.3522508479      -11.5061175236       18.1601568372  IM1       139             0.0000000000
      7208       379  IM1       LPN21          -0.0337208941      -10.9357873072       18.4127051961  IM1       139             0.0000000000
      7209       380  IM1       C1             12.0497134365       26.5323079747      -18.6100322420  IM1       140             0.0000000000
      7210       380  IM1       DC1            12.0472851035       26.5480303760      -18.6392507885  IM1       140             0.0000000000
      7211       380  IM1       H1             12.3013321464       27.5107966523      -18.1478970524  IM1       140             0.0000000000
      7212       380  IM1       H2             12.9681882214       25.9104156620      -18.6730800086  IM1       140             0.0000000000
      7213       380  IM1       H3             11.2870489739       26.0456732113      -17.9651675073  IM1       140             0.0000000000
      7214       380  IM1       N1             11.5040774368       26.7235439241      -19.9208460245  IM1       140             0.0000000000
      7215       380  IM1       DN1            11.4989835720       26.7190451812      -19.9447184113  IM1       140             0.0000000000
      7216       380  IM1       C2             11.3582185717       27.9114719140      -20.6040914420  IM1       140             0.0000000000
      7217       380  IM1       DC2            11.3564553087       27.9036263704      -20.6075530576  IM1       140             0.0000000000
      7218       380  IM1       H4             11.6095838272       28.8657832596      -20.1580035986  IM1       140             0.0000000000
      7219       380  IM1       C3             10.7744145494       27.5992680161      -21.8073333322  IM1       140             0.0000000000
      7220       380  IM1       DC3            10.7730646183       27.5923855424      -21.8252363710  IM1       140             0.0000000000
      7221       380  IM1       H5             10.4949279803       28.2826604699      -22.5996407295  IM1       140             0.0000000000
      7222       380  IM1       C4             11.0168439561       25.7537271911      -20.7412250101  IM1       140             0.0000000000
      7223       380  IM1       DC4            11.0175223735       25.7468429137      -20.7449039537  IM1       140             0.0000000000
      7224       380  IM1       H6             11.0128570187       24.7034552051      -20.4496553617  IM1       140             0.0000000000
      7225       380  IM1       N2             10.5692563621       26.2532913988      -21.8897657974  IM1       140             0.0000000000
      7226       380  IM1       DN2            10.5632184974       26.2480022701      -21.8945711068  IM1       140             0.0000000000
      7227       380  IM1       H7             10.1495517376       25.7486317106      -22.6441971252  IM1       140             0.0000000000
      7228       380  IM1       LPN21          10.4491456101       26.0974915957      -22.1162604521  IM1       140             0.0000000000
      7229       381  IM1       C1              9.0154785745        9.8559680677      -33.2726258837  IM1       141             0.0000000000
      7230       381  IM1       DC1             9.0270608187        9.8690854288      -33.2714302470  IM1       141             0.0000000000
      7231       381  IM1       H1              9.2001453574        9.6293104530      -34.3444679919  IM1       141             0.0000000000
      7232       381  IM1       H2              7.9544437557       10.1512201244      -33.1265014905  IM1       141             0.0000000000
      7233       381  IM1       H3              9.2589180477        8.9519134801      -32.6745092345  IM1       141             0.0000000000
      7234       381  IM1       N1              9.8699964611       10.9193333104      -32.8641859717  IM1       141             0.0000000000
      7235       381  IM1       DN1             9.8767763225       10.9306629012      -32.8589801052  IM1       141             0.0000000000
      7236       381  IM1       C2             10.7635083972       11.5986513728      -33.6625111647  IM1       141             0.0000000000
      7237       381  IM1       DC2            10.7600495768       11.6016771885      -33.6498863486  IM1       141             0.0000000000
      7238       381  IM1       H4             10.8643827242       11.3758213955      -34.7175278335  IM1       141             0.0000000000
      7239       381  IM1       C3             11.3836977152       12.5199547218      -32.8487653687  IM1       141             0.0000000000
      7240       381  IM1       DC3            11.3889585748       12.5349801198      -32.8388739502  IM1       141             0.0000000000
      7241       381  IM1       H5             12.1318987959       13.2561991347      -33.1152767330  IM1       141             0.0000000000
      7242       381  IM1       C4              9.9894708890       11.4445835787      -31.6134860666  IM1       141             0.0000000000
      7243       381  IM1       DC4             9.9888275708       11.4493904763      -31.6212922177  IM1       141             0.0000000000
      7244       381  IM1       H6              9.3923008791       11.0875463835      -30.7744315865  IM1       141             0.0000000000
      7245       381  IM1       N2             10.8895681735       12.4241245967      -31.5804608261  IM1       141             0.0000000000
      7246       381  IM1       DN2            10.8897959603       12.4363183046      -31.5808017675  IM1       141             0.0000000000
      7247       381  IM1       H7             11.1363929964       12.9774301121      -30.7848915247  IM1       141             0.0000000000
      7248       381  IM1       LPN21          10.9645017957       12.5872879028      -31.3401221322  IM1       141             0.0000000000
      7249       382  IM1       C1             13.4592294530       14.2481454474       10.6948384390  IM1       142             0.0000000000
      7250       382  IM1       DC1            13.4586864426       14.2413373595       10.6999458075  IM1       142             0.0000000000
      7251       382  IM1       H1             12.7478672883       14.8368116486       10.0769735874  IM1       142             0.0000000000
      7252       382  IM1       H2             14.4981199659       14.4898939133       10.3840568709  IM1       142             0.0000000000
      7253       382  IM1       H3             13.3080922046       14.5004240204       11.7662086149  IM1       142             0.0000000000
      7254       382  IM1       N1             13.2228355925       12.8498580223       10.4894705915  IM1       142             0.0000000000
      7255       382  IM1       DN1            13.2305122835       12.8511541869       10.5043370724  IM1       142             0.0000000000
      7256       382  IM1       C2             12.2625665868       12.3008217418        9.6693486265  IM1       142             0.0000000000
      7257       382  IM1       DC2            12.3016290045       12.3037738540        9.6803932185  IM1       142             0.0000000000
      7258       382  IM1       H4             11.5528224368       12.9099616689        9.1233625546  IM1       142             0.0000000000
      7259       382  IM1       C3             12.4709544977       10.9430895446        9.6708072773  IM1       142             0.0000000000
      7260       382  IM1       DC3            12.4798859614       10.9327033262        9.6636995097  IM1       142             0.0000000000
      7261       382  IM1       H5             11.9374864186       10.1748424138        9.1248245353  IM1       142             0.0000000000
      7262       382  IM1       C4             13.9836994934       11.8123370466       10.9335686323  IM1       142             0.0000000000
      7263       382  IM1       DC4            13.9812480310       11.8212685641       10.9309914775  IM1       142             0.0000000000
      7264       382  IM1       H6             14.8381462265       11.9477232565       11.5966608992  IM1       142             0.0000000000
      7265       382  IM1       N2             13.5563003797       10.6557555324       10.4411304024  IM1       142             0.0000000000
      7266       382  IM1       DN2            13.5588266659       10.6619631744       10.4314741293  IM1       142             0.0000000000
      7267       382  IM1       H7             13.9480427425        9.7536995800       10.6223291332  IM1       142             0.0000000000
      7268       382  IM1       LPN21          13.6788667225       10.3868760186       10.4929116603  IM1       142             0.0000000000
      7269       383  IM1       C1             36.3864049751      -23.8839313204       11.1315954096  IM1       143             0.0000000000
      7270       383  IM1       DC1            36.3992372545      -23.8737293133       11.1367750241  IM1       143             0.0000000000
      7271       383  IM1       H1             37.4939540196      -23.9705624896       11.1193009183  IM1       143             0.0000000000
      7272       383  IM1       H2             36.0528985555      -23.4684946680       12.1065348221  IM1       143             0.0000000000
      7273       383  IM1       H3             36.0786705421      -23.2320703149       10.2861974271  IM1       143             0.0000000000
      7274       383  IM1       N1             35.7758807139      -25.1548311766       10.9467525339  IM1       143             0.0000000000
      7275       383  IM1       DN1            35.7779356954      -25.1386654763       10.9514003084  IM1       143             0.0000000000
      7276       383  IM1       C2             36.3967046884      -26.3805347333       10.8427537550  IM1       143             0.0000000000
      7277       383  IM1       DC2            36.4025332818      -26.3510908047       10.8503784586  IM1       143             0.0000000000
      7278       383  IM1       H4             37.4722294701      -26.5052513995       10.8668617849  IM1       143             0.0000000000
      7279       383  IM1       C3             35.3904391764      -27.3047473459       10.6603995807  IM1       143             0.0000000000
      7280       383  IM1       DC3            35.4089786288      -27.2954261597       10.6674649365  IM1       143             0.0000000000
      7281       383  IM1       H5             35.4729171824      -28.3760444398       10.5247201231  IM1       143             0.0000000000
      7282       383  IM1       C4             34.4400241312      -25.3826068091       10.8316256898  IM1       143             0.0000000000
      7283       383  IM1       DC4            34.4562242794      -25.3745003165       10.8394984991  IM1       143             0.0000000000
      7284       383  IM1       H6             33.7012124317      -24.5819077878       10.8653651635  IM1       143             0.0000000000
      7285       383  IM1       N2             34.1818110092      -26.6723065139       10.6760882875  IM1       143             0.0000000000
      7286       383  IM1       DN2            34.1960225244      -26.6667322795       10.6837960135  IM1       143             0.0000000000
      7287       383  IM1       H7             33.2825211323      -27.0877782939       10.5394833189  IM1       143             0.0000000000
      7288       383  IM1       LPN21          33.9090466594      -26.7944689578       10.6500893112  IM1       143             0.0000000000
      7289       384  IM1       C1              7.5159268987        1.1816113926      -26.1994483863  IM1       144             0.0000000000
      7290       384  IM1       DC1             7.5127183863        1.1864325284      -26.1839505751  IM1       144             0.0000000000
      7291       384  IM1       H1              7.2355433652        0.1185016724      -26.0397492996  IM1       144             0.0000000000
      7292       384  IM1       H2              8.1083578706        1.2888317411      -27.1331776516  IM1       144             0.0000000000
      7293       384  IM1       H3              6.5842842045        1.7781266884      -26.3020758295  IM1       144             0.0000000000
      7294       384  IM1       N1              8.2763763650        1.6364887096      -25.0744282464  IM1       144             0.0000000000
      7295       384  IM1       DN1             8.2740386939        1.6467135642      -25.0686548570  IM1       144             0.0000000000
      7296       384  IM1       C2              8.6927247124        0.8604721116      -24.0176085811  IM1       144             0.0000000000
      7297       384  IM1       DC2             8.6835762940        0.8718211598      -24.0284879000  IM1       144             0.0000000000
      7298       384  IM1       H4              8.4512921206       -0.1941338576      -23.9685621388  IM1       144             0.0000000000
      7299       384  IM1       C3              9.3082280858        1.7112583473      -23.1222828164  IM1       144             0.0000000000
      7300       384  IM1       DC3             9.2872390657        1.7175478731      -23.1215886657  IM1       144             0.0000000000
      7301       384  IM1       H5              9.7503655457        1.4805818479      -22.1609338584  IM1       144             0.0000000000
      7302       384  IM1       C4              8.6588377792        2.9080521484      -24.7816652340  IM1       144             0.0000000000
      7303       384  IM1       DC4             8.6404658323        2.9053213895      -24.7750545724  IM1       144             0.0000000000
      7304       384  IM1       H6              8.5317225374        3.7287808484      -25.4876015741  IM1       144             0.0000000000
      7305       384  IM1       N2              9.2369254974        2.9888447611      -23.5881417261  IM1       144             0.0000000000
      7306       384  IM1       DN2             9.2226583992        2.9901693326      -23.5806982596  IM1       144             0.0000000000
      7307       384  IM1       H7              9.6699854751        3.7961667456      -23.1872798186  IM1       144             0.0000000000
      7308       384  IM1       LPN21           9.3306312807        3.2400839462      -23.4536125545  IM1       144             0.0000000000
      7309       385  IM1       C1             -2.8359594077        9.1188837591      -18.4870578887  IM1       145             0.0000000000
      7310       385  IM1       DC1            -2.8149852446        9.1209939396      -18.5039294398  IM1       145             0.0000000000
      7311       385  IM1       H1             -3.4510664884        9.3093732649      -19.3924186055  IM1       145             0.0000000000
      7312       385  IM1       H2             -3.4513555143        8.5964524471      -17.7237269267  IM1       145             0.0000000000
      7313       385  IM1       H3             -1.9463170018        8.5056749488      -18.7455774141  IM1       145             0.0000000000
      7314       385  IM1       N1             -2.4166305273       10.3632916039      -17.9461451992  IM1       145             0.0000000000
      7315       385  IM1       DN1            -2.4069575573       10.3594433870      -17.9519290089  IM1       145             0.0000000000
      7316       385  IM1       C2             -2.6695022030       11.6036709726      -18.4839072469  IM1       145             0.0000000000
      7317       385  IM1       DC2            -2.6515903175       11.5867710356      -18.4910237533  IM1       145             0.0000000000
      7318       385  IM1       H4             -3.3338475397       11.7304986987      -19.3297494317  IM1       145             0.0000000000
      7319       385  IM1       C3             -2.0366727580       12.5061924635      -17.6588958898  IM1       145             0.0000000000
      7320       385  IM1       DC3            -2.0301024352       12.5020009954      -17.6686254197  IM1       145             0.0000000000
      7321       385  IM1       H5             -2.0026255223       13.5867699064      -17.7227877951  IM1       145             0.0000000000
      7322       385  IM1       C4             -1.6346435065       10.5604079731      -16.8500787656  IM1       145             0.0000000000
      7323       385  IM1       DC4            -1.6331432071       10.5588823077      -16.8712474504  IM1       145             0.0000000000
      7324       385  IM1       H6             -1.2578356932        9.7405480130      -16.2385679173  IM1       145             0.0000000000
      7325       385  IM1       N2             -1.3729348475       11.8496575862      -16.6714771540  IM1       145             0.0000000000
      7326       385  IM1       DN2            -1.3685203896       11.8504755456      -16.6825625922  IM1       145             0.0000000000
      7327       385  IM1       H7             -0.8062233135       12.2529965693      -15.9530373848  IM1       145             0.0000000000
      7328       385  IM1       LPN21          -1.2012843997       11.9669583591      -16.4551980462  IM1       145             0.0000000000
      7329       386  IM1       C1             28.9578281463      -21.9581467667      -20.3455114822  IM1       146             0.0000000000
      7330       386  IM1       DC1            28.9313395853      -21.9169687475      -20.3232527312  IM1       146             0.0000000000
      7331       386  IM1       H1             29.6241947566      -22.2160049526      -19.4947555262  IM1       146             0.0000000000
      7332       386  IM1       H2             29.4873361760      -21.2615702561      -21.0301452629  IM1       146             0.0000000000
      7333       386  IM1       H3             28.6816258271      -22.8775740120      -20.9046955486  IM1       146             0.0000000000
      7334       386  IM1       N1             27.7639343507      -21.3748000245      -19.8573687667  IM1       146             0.0000000000
      7335       386  IM1       DN1            27.7399168627      -21.3519006782      -19.8279165358  IM1       146             0.0000000000
      7336       386  IM1       C2             27.4130650550      -21.1619250220      -18.5391254654  IM1       146             0.0000000000
      7337       386  IM1       DC2            27.4098702273      -21.1478222828      -18.5141877351  IM1       146             0.0000000000
      7338       386  IM1       H4             28.0742665271      -21.4864319889      -17.7451501246  IM1       146             0.0000000000
      7339       386  IM1       C3             26.1997785471      -20.5144311917      -18.5730754914  IM1       146             0.0000000000
      7340       386  IM1       DC3            26.1895977291      -20.5012643523      -18.5496044754  IM1       146             0.0000000000
      7341       386  IM1       H5             25.5924865406      -20.1652205962      -17.7471594068  IM1       146             0.0000000000
      7342       386  IM1       C4             26.7711010118      -20.8485914620      -20.6194636451  IM1       146             0.0000000000
      7343       386  IM1       DC4            26.7808543833      -20.8418187407      -20.6029731089  IM1       146             0.0000000000
      7344       386  IM1       H6             26.8024171931      -20.8789976806      -21.7085893305  IM1       146             0.0000000000
      7345       386  IM1       N2             25.8205357132      -20.3083550222      -19.8626937559  IM1       146             0.0000000000
      7346       386  IM1       DN2            25.8266823999      -20.3032641464      -19.8472284204  IM1       146             0.0000000000
      7347       386  IM1       H7             24.9765151337      -19.8855346078      -20.1926212609  IM1       146             0.0000000000
      7348       386  IM1       LPN21          25.5735783304      -20.1697583478      -19.9617039217  IM1       146             0.0000000000
      7349       387  IM1       C1            -10.2197614798       32.7278534151      -28.2713382874  IM1       147             0.0000000000
      7350       387  IM1       DC1           -10.2327545571       32.6779210566      -28.2897784585  IM1       147             0.0000000000
      7351       387  IM1       H1             -9.5306086839       32.7236200122      -29.1427575333  IM1       147             0.0000000000
      7352       387  IM1       H2             -9.6250693936       32.7396987968      -27.3329769436  IM1       147             0.0000000000
      7353       387  IM1       H3            -10.8550428250       33.6384057666      -28.3117490284  IM1       147             0.0000000000
      7354       387  IM1       N1            -11.0501959415       31.5735216217      -28.2675109735  IM1       147             0.0000000000
      7355       387  IM1       DN1           -11.0603807574       31.5394801032      -28.2794215489  IM1       147             0.0000000000
      7356       387  IM1       C2            -11.0022500274       30.5414122442      -29.1803923559  IM1       147             0.0000000000
      7357       387  IM1       DC2           -11.0036560760       30.5231451835      -29.1877852826  IM1       147             0.0000000000
      7358       387  IM1       H4            -10.3205023044       30.5827929164      -30.0208664377  IM1       147             0.0000000000
      7359       387  IM1       C3            -11.8996235877       29.5972180866      -28.7376223889  IM1       147             0.0000000000
      7360       387  IM1       DC3           -11.9014435014       29.5689544995      -28.7434233574  IM1       147             0.0000000000
      7361       387  IM1       H5            -12.1500731610       28.6416605841      -29.1815524193  IM1       147             0.0000000000
      7362       387  IM1       C4            -11.9602147318       31.2134633910      -27.3168352993  IM1       147             0.0000000000
      7363       387  IM1       DC4           -11.9500333724       31.2018834888      -27.3312741136  IM1       147             0.0000000000
      7364       387  IM1       H6            -12.1941117097       31.8496463385      -26.4632174333  IM1       147             0.0000000000
      7365       387  IM1       N2            -12.4730440604       30.0091202841      -27.5773307493  IM1       147             0.0000000000
      7366       387  IM1       DN2           -12.4654733035       29.9924193164      -27.5871545115  IM1       147             0.0000000000
      7367       387  IM1       H7            -13.1716324033       29.5382712450      -27.0385585251  IM1       147             0.0000000000
      7368       387  IM1       LPN21         -12.6744658918       29.8622194208      -27.4104494076  IM1       147             0.0000000000
      7369       388  IM1       C1              8.4008477748       -6.7456577757       31.8255943752  IM1       148             0.0000000000
      7370       388  IM1       DC1             8.4011666054       -6.7617690748       31.8256873874  IM1       148             0.0000000000
      7371       388  IM1       H1              8.7020649656       -7.8111024455       31.9173378287  IM1       148             0.0000000000
      7372       388  IM1       H2              8.8156143245       -6.1660155941       32.6778294667  IM1       148             0.0000000000
      7373       388  IM1       H3              8.7657429863       -6.3285020163       30.8627062421  IM1       148             0.0000000000
      7374       388  IM1       N1              6.9796673245       -6.6410525185       31.8600740564  IM1       148             0.0000000000
      7375       388  IM1       DN1             6.9823146813       -6.6339909927       31.8588944581  IM1       148             0.0000000000
      7376       388  IM1       C2              6.0902020408       -7.6769039844       32.0359729232  IM1       148             0.0000000000
      7377       388  IM1       DC2             6.1117956386       -7.6704041193       32.0326891644  IM1       148             0.0000000000
      7378       388  IM1       H4              6.4195199345       -8.7015150989       32.1568480197  IM1       148             0.0000000000
      7379       388  IM1       C3              4.8333552827       -7.1084680855       32.0155773411  IM1       148             0.0000000000
      7380       388  IM1       DC3             4.8424044797       -7.1111037863       32.0158857889  IM1       148             0.0000000000
      7381       388  IM1       H5              3.8710706819       -7.5943988440       32.1193494227  IM1       148             0.0000000000
      7382       388  IM1       C4              6.2379058761       -5.5048630085       31.7435069432  IM1       148             0.0000000000
      7383       388  IM1       DC4             6.2453317172       -5.5099177731       31.7421942424  IM1       148             0.0000000000
      7384       388  IM1       H6              6.6861753258       -4.5216337442       31.6006268737  IM1       148             0.0000000000
      7385       388  IM1       N2              4.9387116296       -5.7603199131       31.8248907682  IM1       148             0.0000000000
      7386       388  IM1       DN2             4.9426239411       -5.7643899732       31.8229687672  IM1       148             0.0000000000
      7387       388  IM1       H7              4.1934241595       -5.0956528881       31.7723138455  IM1       148             0.0000000000
      7388       388  IM1       LPN21           4.7179505543       -5.5581921561       31.8046690606  IM1       148             0.0000000000
      7389       389  IM1       C1             -4.2415878941      -33.0185221395      -33.5218373571  IM1       149             0.0000000000
      7390       389  IM1       DC1            -4.2327678178      -33.0260017489      -33.5264132152  IM1       149             0.0000000000
      7391       389  IM1       H1             -3.2717991707      -33.2231517137      -34.0237911099  IM1       149             0.0000000000
      7392       389  IM1       H2             -4.1529925429      -33.2473705214      -32.4382782762  IM1       149             0.0000000000
      7393       389  IM1       H3             -4.5359335870      -31.9569611214      -33.6659547376  IM1       149             0.0000000000
      7394       389  IM1       N1             -5.2449930376      -33.8540745504      -34.0842463107  IM1       149             0.0000000000
      7395       389  IM1       DN1            -5.2435795756      -33.8552511658      -34.0828662910  IM1       149             0.0000000000
      7396       389  IM1       C2             -5.1258894657      -34.5987971991      -35.2453822671  IM1       149             0.0000000000
      7397       389  IM1       DC2            -5.1138523289      -34.5904958465      -35.2343826332  IM1       149             0.0000000000
      7398       389  IM1       H4             -4.1889711777      -34.6759734781      -35.7830782254  IM1       149             0.0000000000
      7399       389  IM1       C3             -6.3428759348      -35.2337018399      -35.4122698367  IM1       149             0.0000000000
      7400       389  IM1       DC3            -6.3299855681      -35.2383009525      -35.4174876075  IM1       149             0.0000000000
      7401       389  IM1       H5             -6.6564641357      -35.8966119594      -36.2092024648  IM1       149             0.0000000000
      7402       389  IM1       C4             -6.5189639834      -34.0364110512      -33.6172326146  IM1       149             0.0000000000
      7403       389  IM1       DC4            -6.5030604557      -34.0328334257      -33.6212829641  IM1       149             0.0000000000
      7404       389  IM1       H6             -6.9317997384      -33.4456185056      -32.7995341325  IM1       149             0.0000000000
      7405       389  IM1       N2             -7.1985596224      -34.8707263744      -34.4020569675  IM1       149             0.0000000000
      7406       389  IM1       DN2            -7.1837761956      -34.8734264074      -34.4043554199  IM1       149             0.0000000000
      7407       389  IM1       H7             -8.1834764927      -35.0400827173      -34.3666001244  IM1       149             0.0000000000
      7408       389  IM1       LPN21          -7.4825680827      -34.9578883835      -34.3603199497  IM1       149             0.0000000000
      7409       390  IM1       C1            -27.8645413961       -8.4099893515        5.2369618222  IM1       150             0.0000000000
      7410       390  IM1       DC1           -27.8575781744       -8.3966354021        5.2368274379  IM1       150             0.0000000000
      7411       390  IM1       H1            -28.9405130148       -8.3295297740        4.9721367250  IM1       150             0.0000000000
      7412       390  IM1       H2            -27.7779950744       -8.5150256252        6.3395941802  IM1       150             0.0000000000
      7413       390  IM1       H3            -27.4240412885       -9.2866586973        4.7156830926  IM1       150             0.0000000000
      7414       390  IM1       N1            -27.1964822403       -7.2291288167        4.8122228425  IM1       150             0.0000000000
      7415       390  IM1       DN1           -27.1865764641       -7.2218980787        4.8106858914  IM1       150             0.0000000000
      7416       390  IM1       C2            -27.7730655287       -6.1625843753        4.1553287686  IM1       150             0.0000000000
      7417       390  IM1       DC2           -27.7726980236       -6.1706178081        4.1578714586  IM1       150             0.0000000000
      7418       390  IM1       H4            -28.8300188236       -6.1600624648        3.9192517213  IM1       150             0.0000000000
      7419       390  IM1       C3            -26.7808498192       -5.2175458890        4.0206717417  IM1       150             0.0000000000
      7420       390  IM1       DC3           -26.7861637131       -5.2181217498        4.0221762444  IM1       150             0.0000000000
      7421       390  IM1       H5            -26.8692126954       -4.2113715682        3.6299106403  IM1       150             0.0000000000
      7422       390  IM1       C4            -25.8899772504       -6.9083950967        5.0113544988  IM1       150             0.0000000000
      7423       390  IM1       DC4           -25.8972980030       -6.9128850769        5.0095685582  IM1       150             0.0000000000
      7424       390  IM1       H6            -25.1934069006       -7.5803186118        5.5127610580  IM1       150             0.0000000000
      7425       390  IM1       N2            -25.6132442670       -5.6958665788        4.5446960405  IM1       150             0.0000000000
      7426       390  IM1       DN2           -25.6152503271       -5.6973672173        4.5410172182  IM1       150             0.0000000000
      7427       390  IM1       H7            -24.7354099094       -5.2206192060        4.6042508505  IM1       150             0.0000000000
      7428       390  IM1       LPN21         -25.3459608064       -5.5600492002        4.5553351854  IM1       150             0.0000000000
      7429       391  IM1       C1            -20.1708954765       -9.2657625005      -11.6995412399  IM1       151             0.0000000000
      7430       391  IM1       DC1           -20.1704077949       -9.2703976804      -11.6814387676  IM1       151             0.0000000000
      7431       391  IM1       H1            -21.1904225094       -8.8271281802      -11.6496858274  IM1       151             0.0000000000
      7432       391  IM1       H2            -19.5946093050       -8.7813034380      -12.5165569482  IM1       151             0.0000000000
      7433       391  IM1       H3            -19.6595137159       -9.1323127449      -10.7222997863  IM1       151             0.0000000000
      7434       391  IM1       N1            -20.2810893328      -10.6546881506      -11.9866209211  IM1       151             0.0000000000
      7435       391  IM1       DN1           -20.2786258896      -10.6582027306      -11.9778679157  IM1       151             0.0000000000
      7436       391  IM1       C2            -21.4405953605      -11.3591663548      -12.2184993265  IM1       151             0.0000000000
      7437       391  IM1       DC2           -21.4326813611      -11.3548476766      -12.1942213132  IM1       151             0.0000000000
      7438       391  IM1       H4            -22.4030735736      -10.8658471042      -12.2747203756  IM1       151             0.0000000000
      7439       391  IM1       C3            -21.0560756624      -12.6648471397      -12.4412826520  IM1       151             0.0000000000
      7440       391  IM1       DC3           -21.0626320846      -12.6660174405      -12.4199660789  IM1       151             0.0000000000
      7441       391  IM1       H5            -21.6684667952      -13.5234368214      -12.6876357712  IM1       151             0.0000000000
      7442       391  IM1       C4            -19.2629581322      -11.5521293291      -12.0535191815  IM1       151             0.0000000000
      7443       391  IM1       DC4           -19.2712490064      -11.5456894147      -12.0414457131  IM1       151             0.0000000000
      7444       391  IM1       H6            -18.2206255625      -11.2660106813      -11.9128815788  IM1       151             0.0000000000
      7445       391  IM1       N2            -19.7108318169      -12.7807830544      -12.2821646066  IM1       151             0.0000000000
      7446       391  IM1       DN2           -19.7168588066      -12.7789198310      -12.2718415755  IM1       151             0.0000000000
      7447       391  IM1       H7            -19.1590846295      -13.6084198062      -12.3850842347  IM1       151             0.0000000000
      7448       391  IM1       LPN21         -19.5444070166      -13.0300556974      -12.2950461927  IM1       151             0.0000000000
      7449       392  IM1       C1             21.0532793301      -20.7854014169       13.8131252536  IM1       152             0.0000000000
      7450       392  IM1       DC1            21.0505947700      -20.7703131945       13.8327105144  IM1       152             0.0000000000
      7451       392  IM1       H1             22.1238292766      -20.5079275406       13.9192009809  IM1       152             0.0000000000
      7452       392  IM1       H2             20.6155318055      -20.2490798805       12.9441849134  IM1       152             0.0000000000
      7453       392  IM1       H3             20.9633556579      -21.8828851562       13.6655983908  IM1       152             0.0000000000
      7454       392  IM1       N1             20.3427180869      -20.4170908591       14.9888316116  IM1       152             0.0000000000
      7455       392  IM1       DN1            20.3411023390      -20.4055455945       15.0052339262  IM1       152             0.0000000000
      7456       392  IM1       C2             20.8676271494      -19.7859304089       16.0936508785  IM1       152             0.0000000000
      7457       392  IM1       DC2            20.8657440702      -19.7855111613       16.0966427067  IM1       152             0.0000000000
      7458       392  IM1       H4             21.9171598826      -19.5241092146       16.1467517676  IM1       152             0.0000000000
      7459       392  IM1       C3             19.8107378548      -19.5692731544       16.9505143946  IM1       152             0.0000000000
      7460       392  IM1       DC3            19.8129971172      -19.5684686853       16.9657141102  IM1       152             0.0000000000
      7461       392  IM1       H5             19.8091038826      -19.0977879105       17.9254954175  IM1       152             0.0000000000
      7462       392  IM1       C4             19.0122558028      -20.5717788586       15.2254978486  IM1       152             0.0000000000
      7463       392  IM1       DC4            19.0237082470      -20.5599531683       15.2273355680  IM1       152             0.0000000000
      7464       392  IM1       H6             18.3483181127      -21.0665502413       14.5166339529  IM1       152             0.0000000000
      7465       392  IM1       N2             18.6704578694      -20.0626312729       16.4042442768  IM1       152             0.0000000000
      7466       392  IM1       DN2            18.6831269307      -20.0565044871       16.4084576344  IM1       152             0.0000000000
      7467       392  IM1       H7             17.7596795990      -20.0735834904       16.8169947960  IM1       152             0.0000000000
      7468       392  IM1       LPN21          18.3945275430      -20.0597162520       16.5219471128  IM1       152             0.0000000000
      7469       393  IM1       C1             19.3752760323       30.4553790563       -6.7070040927  IM1       153             0.0000000000
      7470       393  IM1       DC1            19.3790506896       30.4530355837       -6.7166118688  IM1       153             0.0000000000
      7471       393  IM1       H1             19.0123148898       29.4142830662       -6.5702585289  IM1       153             0.0000000000
      7472       393  IM1       H2             18.9648667625       30.8849446135       -7.6458111353  IM1       153             0.0000000000
      7473       393  IM1       H3             19.0779437644       31.0658296573       -5.8276494498  IM1       153             0.0000000000
      7474       393  IM1       N1             20.7914694024       30.4540068068       -6.7908229843  IM1       153             0.0000000000
      7475       393  IM1       DN1            20.7978170451       30.4652310280       -6.7940138056  IM1       153             0.0000000000
      7476       393  IM1       C2             21.6281848565       29.3629411623       -6.7365265204  IM1       153             0.0000000000
      7477       393  IM1       DC2            21.6163793209       29.3734981452       -6.7425120763  IM1       153             0.0000000000
      7478       393  IM1       H4             21.2519440223       28.3511968194       -6.6487471415  IM1       153             0.0000000000
      7479       393  IM1       C3             22.9096168981       29.8563037206       -6.8208781339  IM1       153             0.0000000000
      7480       393  IM1       DC3            22.9066076234       29.8610843693       -6.8270973316  IM1       153             0.0000000000
      7481       393  IM1       H5             23.8466592942       29.3138819877       -6.8457620997  IM1       153             0.0000000000
      7482       393  IM1       C4             21.5839756771       31.5470892692       -6.9109605641  IM1       153             0.0000000000
      7483       393  IM1       DC4            21.5803190265       31.5507003225       -6.9154632373  IM1       153             0.0000000000
      7484       393  IM1       H6             21.1886137730       32.5594222996       -6.9944518836  IM1       153             0.0000000000
      7485       393  IM1       N2             22.8637563036       31.2115320699       -6.9324961467  IM1       153             0.0000000000
      7486       393  IM1       DN2            22.8611179892       31.2153039514       -6.9362856812  IM1       153             0.0000000000
      7487       393  IM1       H7             23.6393176169       31.8299476329       -7.0592511892  IM1       153             0.0000000000
      7488       393  IM1       LPN21          23.0941835626       31.4020174895       -6.9573674803  IM1       153             0.0000000000
      7489       394  IM1       C1             25.3346210054      -36.3464070470      -11.5157932539  IM1       154             0.0000000000
      7490       394  IM1       DC1            25.3178986495      -36.3521171407      -11.5314229984  IM1       154             0.0000000000
      7491       394  IM1       H1             24.9199167331      -35.8428096143      -12.4150879740  IM1       154             0.0000000000
      7492       394  IM1       H2             24.8175376742      -35.9716679959      -10.6066637402  IM1       154             0.0000000000
      7493       394  IM1       H3             25.2921472462      -37.4476934659      -11.6560972219  IM1       154             0.0000000000
      7494       394  IM1       N1             26.6572325636      -36.0457440320      -11.3444973681  IM1       154             0.0000000000
      7495       394  IM1       DN1            26.6372855553      -36.0500184472      -11.3395763637  IM1       154             0.0000000000
      7496       394  IM1       C2             27.3854470451      -35.6443402854      -12.4137436573  IM1       154             0.0000000000
      7497       394  IM1       DC2            27.3411109114      -35.6624661674      -12.4161346941  IM1       154             0.0000000000
      7498       394  IM1       H4             26.9134253794      -35.4379578293      -13.3663667879  IM1       154             0.0000000000
      7499       394  IM1       C3             28.6780951567      -35.6145244258      -11.9756990374  IM1       154             0.0000000000
      7500       394  IM1       DC3            28.6367176012      -35.6249946275      -11.9919643130  IM1       154             0.0000000000
      7501       394  IM1       H5             29.5212057880      -35.3093429128      -12.5830850000  IM1       154             0.0000000000
      7502       394  IM1       C4             27.5045374110      -36.2997412103      -10.3098322205  IM1       154             0.0000000000
      7503       394  IM1       DC4            27.4908466203      -36.3033915150      -10.3312807511  IM1       154             0.0000000000
      7504       394  IM1       H6             27.1832214361      -36.6668296171       -9.3351003877  IM1       154             0.0000000000
      7505       394  IM1       N2             28.7478208273      -36.0457118803      -10.6768464309  IM1       154             0.0000000000
      7506       394  IM1       DN2            28.7348077577      -36.0476454654      -10.6914260141  IM1       154             0.0000000000
      7507       394  IM1       H7             29.5681385881      -36.1374274708      -10.1123404330  IM1       154             0.0000000000
      7508       394  IM1       LPN21          28.9909728340      -36.0785397854      -10.5042213160  IM1       154             0.0000000000
      7509       395  IM1       C1             20.6635222261       -4.3061791429      -29.9946417755  IM1       155             0.0000000000
      7510       395  IM1       DC1            20.6495166642       -4.3033634060      -29.9815197493  IM1       155             0.0000000000
      7511       395  IM1       H1             20.2738985647       -3.3428951854      -29.6014517194  IM1       155             0.0000000000
      7512       395  IM1       H2             20.5290826043       -4.3351601886      -31.0970968027  IM1       155             0.0000000000
      7513       395  IM1       H3             21.7406257521       -4.4222376513      -29.7482692551  IM1       155             0.0000000000
      7514       395  IM1       N1             19.9721961179       -5.3907686389      -29.4039983319  IM1       155             0.0000000000
      7515       395  IM1       DN1            19.9662399891       -5.3924953106      -29.3981677715  IM1       155             0.0000000000
      7516       395  IM1       C2             19.0684082624       -5.3155537885      -28.3654336058  IM1       155             0.0000000000
      7517       395  IM1       DC2            19.0745913349       -5.2952117628      -28.3596236634  IM1       155             0.0000000000
      7518       395  IM1       H4             18.7523197702       -4.3632516316      -27.9578827905  IM1       155             0.0000000000
      7519       395  IM1       C3             18.6578822810       -6.6121862718      -28.1400390743  IM1       155             0.0000000000
      7520       395  IM1       DC3            18.6513997033       -6.6015168270      -28.1388658449  IM1       155             0.0000000000
      7521       395  IM1       H5             17.8966096899       -6.9714096391      -27.4586349252  IM1       155             0.0000000000
      7522       395  IM1       C4             20.1132424531       -6.7087405181      -29.7175125265  IM1       155             0.0000000000
      7523       395  IM1       DC4            20.1100780648       -6.6953454673      -29.7144453074  IM1       155             0.0000000000
      7524       395  IM1       H6             20.8222869039       -7.0572841412      -30.4684275081  IM1       155             0.0000000000
      7525       395  IM1       N2             19.3209618353       -7.4675818148      -28.9690861626  IM1       155             0.0000000000
      7526       395  IM1       DN2            19.3164393392       -7.4605145333      -28.9641621789  IM1       155             0.0000000000
      7527       395  IM1       H7             19.2559370485       -8.4652984144      -28.9873444197  IM1       155             0.0000000000
      7528       395  IM1       LPN21          19.2970920301       -7.7662565102      -28.9840413859  IM1       155             0.0000000000
      7529       396  IM1       C1            -26.0531327962       25.9853831103        8.3648635660  IM1       156             0.0000000000
      7530       396  IM1       DC1           -26.0457031122       25.9897420826        8.3665559474  IM1       156             0.0000000000
      7531       396  IM1       H1            -26.3011324315       25.9951640959        9.4477862382  IM1       156             0.0000000000
      7532       396  IM1       H2            -26.0253923660       24.9372708267        7.9974236258  IM1       156             0.0000000000
      7533       396  IM1       H3            -26.8124998064       26.5669629203        7.7996665469  IM1       156             0.0000000000
      7534       396  IM1       N1            -24.7894626123       26.5756955657        8.1648564296  IM1       156             0.0000000000
      7535       396  IM1       DN1           -24.7827622296       26.5806854416        8.1712064616  IM1       156             0.0000000000
      7536       396  IM1       C2            -23.9318140831       27.0185923488        9.1474744806  IM1       156             0.0000000000
      7537       396  IM1       DC2           -23.9227909251       27.0148331536        9.1371491557  IM1       156             0.0000000000
      7538       396  IM1       H4            -24.2040174831       26.9744917275       10.1947802833  IM1       156             0.0000000000
      7539       396  IM1       C3            -22.8058930760       27.4677320058        8.5015640818  IM1       156             0.0000000000
      7540       396  IM1       DC3           -22.7934297907       27.4675458226        8.4881227053  IM1       156             0.0000000000
      7541       396  IM1       H5            -21.9005602106       27.8913622106        8.9184559771  IM1       156             0.0000000000
      7542       396  IM1       C4            -24.1651202842       26.7671514042        6.9757682629  IM1       156             0.0000000000
      7543       396  IM1       DC4           -24.1673149670       26.7744045816        6.9941217457  IM1       156             0.0000000000
      7544       396  IM1       H6            -24.6047621025       26.4614531382        6.0263665346  IM1       156             0.0000000000
      7545       396  IM1       N2            -22.9577790523       27.3024839696        7.1612621471  IM1       156             0.0000000000
      7546       396  IM1       DN2           -22.9473490784       27.3140776954        7.1668440044  IM1       156             0.0000000000
      7547       396  IM1       H7            -22.2995473731       27.5111811416        6.4379527065  IM1       156             0.0000000000
      7548       396  IM1       LPN21         -22.7608561894       27.3715275062        6.9457293744  IM1       156             0.0000000000
      7549       397  IM1       C1             -7.2345950071       35.9055970711      -17.0013074989  IM1       157             0.0000000000
      7550       397  IM1       DC1            -7.2255739852       35.9069041092      -16.9908190306  IM1       157             0.0000000000
      7551       397  IM1       H1             -7.9804521612       36.2455597581      -16.2513451809  IM1       157             0.0000000000
      7552       397  IM1       H2             -7.5573370364       34.9310902271      -17.4261545233  IM1       157             0.0000000000
      7553       397  IM1       H3             -7.1699071914       36.6686290484      -17.8062414639  IM1       157             0.0000000000
      7554       397  IM1       N1             -5.9723098573       35.7531510649      -16.3549486698  IM1       157             0.0000000000
      7555       397  IM1       DN1            -5.9595952147       35.7574675454      -16.3526367724  IM1       157             0.0000000000
      7556       397  IM1       C2             -5.7968401140       35.7328478212      -14.9935493823  IM1       157             0.0000000000
      7557       397  IM1       DC2            -5.8007541896       35.7496010148      -15.0000390588  IM1       157             0.0000000000
      7558       397  IM1       H4             -6.6447732483       35.8184550235      -14.3252905950  IM1       157             0.0000000000
      7559       397  IM1       C3             -4.4369238555       35.7194295619      -14.7767289405  IM1       157             0.0000000000
      7560       397  IM1       DC3            -4.4340443306       35.7338940567      -14.7775139784  IM1       157             0.0000000000
      7561       397  IM1       H5             -3.9191269279       35.8032492851      -13.8292324520  IM1       157             0.0000000000
      7562       397  IM1       C4             -4.7283198595       35.6727711121      -16.9050411717  IM1       157             0.0000000000
      7563       397  IM1       DC4            -4.7320413110       35.6768827689      -16.9009077750  IM1       157             0.0000000000
      7564       397  IM1       H6             -4.5726121755       35.5952137109      -17.9810708956  IM1       157             0.0000000000
      7565       397  IM1       N2             -3.7796770770       35.6833892904      -15.9718842828  IM1       157             0.0000000000
      7566       397  IM1       DN2            -3.7762831061       35.6873815981      -15.9698466243  IM1       157             0.0000000000
      7567       397  IM1       H7             -2.7949445848       35.5851927726      -16.1156179346  IM1       157             0.0000000000
      7568       397  IM1       LPN21          -3.4836362970       35.6787015471      -16.0202359283  IM1       157             0.0000000000
      7569       398  IM1       C1             28.7127054863       -3.7167693489        7.2070850325  IM1       158             0.0000000000
      7570       398  IM1       DC1            28.7027034353       -3.7251074642        7.1926344519  IM1       158             0.0000000000
      7571       398  IM1       H1             28.5186684127       -4.1776514902        6.2149871208  IM1       158             0.0000000000
      7572       398  IM1       H2             28.5386322570       -2.6205476520        7.1589445761  IM1       158             0.0000000000
      7573       398  IM1       H3             28.0577077513       -4.1725972520        7.9800791399  IM1       158             0.0000000000
      7574       398  IM1       N1             30.0717673574       -3.9372317346        7.5765552070  IM1       158             0.0000000000
      7575       398  IM1       DN1            30.0612210498       -3.9392489828        7.5724524520  IM1       158             0.0000000000
      7576       398  IM1       C2             31.0190712827       -4.6221393137        6.8448051476  IM1       158             0.0000000000
      7577       398  IM1       DC2            30.9955724952       -4.6230777628        6.8430614635  IM1       158             0.0000000000
      7578       398  IM1       H4             30.7987354723       -5.0512850194        5.8751788818  IM1       158             0.0000000000
      7579       398  IM1       C3             32.1814129416       -4.5692450483        7.5848747280  IM1       158             0.0000000000
      7580       398  IM1       DC3            32.1693672301       -4.5789968882        7.5750575816  IM1       158             0.0000000000
      7581       398  IM1       H5             33.1576566684       -4.9747410484        7.3494810542  IM1       158             0.0000000000
      7582       398  IM1       C4             30.6847406700       -3.5158295456        8.7167785833  IM1       158             0.0000000000
      7583       398  IM1       DC4            30.6770548106       -3.5265152307        8.6973013362  IM1       158             0.0000000000
      7584       398  IM1       H6             30.1689926841       -2.9383886713        9.4840243406  IM1       158             0.0000000000
      7585       398  IM1       N2             31.9557345857       -3.8968155708        8.7477740680  IM1       158             0.0000000000
      7586       398  IM1       DN2            31.9506929499       -3.9046348161        8.7360373704  IM1       158             0.0000000000
      7587       398  IM1       H7             32.6170222078       -3.7057576930        9.4731674569  IM1       158             0.0000000000
      7588       398  IM1       LPN21          32.1500679634       -3.8425978595        8.9697987920  IM1       158             0.0000000000
      7589       399  IM1       C1              6.0857945185        8.1053145585      -12.7003035290  IM1       159             0.0000000000
      7590       399  IM1       DC1             6.0898133103        8.1065722746      -12.7223757879  IM1       159             0.0000000000
      7591       399  IM1       H1              6.3841711635        8.8360414155      -13.4821798876  IM1       159             0.0000000000
      7592       399  IM1       H2              6.9223857669        7.9515152764      -11.9856134812  IM1       159             0.0000000000
      7593       399  IM1       H3              5.1716650561        8.4672183866      -12.1828927201  IM1       159             0.0000000000
      7594       399  IM1       N1              5.7875609288        6.8594602975      -13.2695474899  IM1       159             0.0000000000
      7595       399  IM1       DN1             5.7882833375        6.8544633040      -13.2874694153  IM1       159             0.0000000000
      7596       399  IM1       C2              5.8727490380        6.5599981463      -14.6060487161  IM1       159             0.0000000000
      7597       399  IM1       DC2             5.8843762993        6.5711000871      -14.6190252579  IM1       159             0.0000000000
      7598       399  IM1       H4              6.1937416203        7.3068079823      -15.3216797884  IM1       159             0.0000000000
      7599       399  IM1       C3              5.4437175497        5.2566487830      -14.7124526359  IM1       159             0.0000000000
      7600       399  IM1       DC3             5.4516202319        5.2573837706      -14.7302586668  IM1       159             0.0000000000
      7601       399  IM1       H5              5.3694851604        4.6524252236      -15.6081604245  IM1       159             0.0000000000
      7602       399  IM1       C4              5.3428095541        5.7463696568      -12.6255570817  IM1       159             0.0000000000
      7603       399  IM1       DC4             5.3512323440        5.7561194545      -12.6445393448  IM1       159             0.0000000000
      7604       399  IM1       H6              5.1899944630        5.7140138901      -11.5468075035  IM1       159             0.0000000000
      7605       399  IM1       N2              5.1355540677        4.7555689898      -13.4849694677  IM1       159             0.0000000000
      7606       399  IM1       DN2             5.1388328422        4.7600179155      -13.4981644220  IM1       159             0.0000000000
      7607       399  IM1       H7              4.8159400215        3.8334973275      -13.2667248546  IM1       159             0.0000000000
      7608       399  IM1       LPN21           5.0401484285        4.4794363738      -13.4167892478  IM1       159             0.0000000000
      7609       400  IM1       C1            -10.2977058615      -11.4044183495      -18.6817383991  IM1       160             0.0000000000
      7610       400  IM1       DC1           -10.3010941095      -11.4273491218      -18.6810333935  IM1       160             0.0000000000
      7611       400  IM1       H1            -10.9146514854      -10.9390469877      -17.8835350461  IM1       160             0.0000000000
      7612       400  IM1       H2            -10.5756841711      -10.9620811176      -19.6622417549  IM1       160             0.0000000000
      7613       400  IM1       H3             -9.2227980957      -11.2172082356      -18.4723424413  IM1       160             0.0000000000
      7614       400  IM1       N1            -10.5317204305      -12.8165674526      -18.7219232533  IM1       160             0.0000000000
      7615       400  IM1       DN1           -10.5290772007      -12.8352198869      -18.7267913851  IM1       160             0.0000000000
      7616       400  IM1       C2            -11.3821465103      -13.5344104711      -17.9081313158  IM1       160             0.0000000000
      7617       400  IM1       DC2           -11.3746008063      -13.5350996188      -17.9150529020  IM1       160             0.0000000000
      7618       400  IM1       H4            -11.9644601190      -13.0439751861      -17.1378890861  IM1       160             0.0000000000
      7619       400  IM1       C3            -11.2932491310      -14.8481314338      -18.3165562362  IM1       160             0.0000000000
      7620       400  IM1       DC3           -11.2866646040      -14.8576980962      -18.3173462767  IM1       160             0.0000000000
      7621       400  IM1       H5            -11.8098970634      -15.7137658864      -17.9207773707  IM1       160             0.0000000000
      7622       400  IM1       C4             -9.9665540716      -13.7146881619      -19.5760364176  IM1       160             0.0000000000
      7623       400  IM1       DC4            -9.9637660219      -13.7155011736      -19.5764911811  IM1       160             0.0000000000
      7624       400  IM1       H6             -9.2401296504      -13.4190660631      -20.3330140494  IM1       160             0.0000000000
      7625       400  IM1       N2            -10.4089419475      -14.9484566919      -19.3547478795  IM1       160             0.0000000000
      7626       400  IM1       DN2           -10.4058011363      -14.9513717467      -19.3560905331  IM1       160             0.0000000000
      7627       400  IM1       H7            -10.1358822344      -15.7787735057      -19.8405589368  IM1       160             0.0000000000
      7628       400  IM1       LPN21         -10.3273528417      -15.1946379535      -19.5055391400  IM1       160             0.0000000000
      7629       401  IM1       C1             25.0703034403       24.2825952771       26.5106774937  IM1       161             0.0000000000
      7630       401  IM1       DC1            25.0687025415       24.2641617429       26.4829258202  IM1       161             0.0000000000
      7631       401  IM1       H1             25.9503174959       24.7593768077       26.0284165325  IM1       161             0.0000000000
      7632       401  IM1       H2             25.1077296470       24.4725574402       27.6046768793  IM1       161             0.0000000000
      7633       401  IM1       H3             24.1338555825       24.7005864994       26.0832786759  IM1       161             0.0000000000
      7634       401  IM1       N1             25.1042039816       22.8693263608       26.2948826345  IM1       161             0.0000000000
      7635       401  IM1       DN1            25.0958003324       22.8458845659       26.2803129655  IM1       161             0.0000000000
      7636       401  IM1       C2             26.0045019082       22.1730676935       25.5193155645  IM1       161             0.0000000000
      7637       401  IM1       DC2            25.9968237275       22.1701121424       25.5048472559  IM1       161             0.0000000000
      7638       401  IM1       H4             26.8635168502       22.6733245292       25.0895186013  IM1       161             0.0000000000
      7639       401  IM1       C3             25.6076505799       20.8534888781       25.5527510272  IM1       161             0.0000000000
      7640       401  IM1       DC3            25.5978816810       20.8383103108       25.5514080575  IM1       161             0.0000000000
      7641       401  IM1       H5             26.0715338501       19.9995485505       25.0747476501  IM1       161             0.0000000000
      7642       401  IM1       C4             24.2015414176       21.9564818651       26.7444420316  IM1       161             0.0000000000
      7643       401  IM1       DC4            24.1895015437       21.9522102522       26.7274460504  IM1       161             0.0000000000
      7644       401  IM1       H6             23.3585096911       22.2449917812       27.3722632933  IM1       161             0.0000000000
      7645       401  IM1       N2             24.4630790413       20.7319104526       26.2863249846  IM1       161             0.0000000000
      7646       401  IM1       DN2            24.4495513611       20.7229592603       26.2774345096  IM1       161             0.0000000000
      7647       401  IM1       H7             23.9418635866       19.8985901229       26.4704762221  IM1       161             0.0000000000
      7648       401  IM1       LPN21          24.3008545445       20.4846848568       26.3369482737  IM1       161             0.0000000000
      7649       402  IM1       C1            -36.0690747912       34.8067640530       22.2521006691  IM1       162             0.0000000000
      7650       402  IM1       DC1           -36.0751062359       34.8139016141       22.2427534032  IM1       162             0.0000000000
      7651       402  IM1       H1            -36.5871737128       35.5751279148       21.6393107514  IM1       162             0.0000000000
      7652       402  IM1       H2            -34.9741433879       34.9944834538       22.2376905953  IM1       162             0.0000000000
      7653       402  IM1       H3            -36.4534494572       34.8295983460       23.2942406366  IM1       162             0.0000000000
      7654       402  IM1       N1            -36.3113527226       33.5108839399       21.7099364823  IM1       162             0.0000000000
      7655       402  IM1       DN1           -36.3135540754       33.5103311306       21.7168220864  IM1       162             0.0000000000
      7656       402  IM1       C2            -36.9083503090       33.2728631666       20.5032272082  IM1       162             0.0000000000
      7657       402  IM1       DC2           -36.8948543265       33.2833463308       20.5127809339  IM1       162             0.0000000000
      7658       402  IM1       H4            -37.3748329181       34.0754284753       19.9453993668  IM1       162             0.0000000000
      7659       402  IM1       C3            -36.6871965105       31.9403090943       20.2201856986  IM1       162             0.0000000000
      7660       402  IM1       DC3           -36.6863748652       31.9422171053       20.2106272431  IM1       162             0.0000000000
      7661       402  IM1       H5            -36.8756026552       31.3890113192       19.3072438122  IM1       162             0.0000000000
      7662       402  IM1       C4            -35.7806033032       32.3216040403       22.1130476357  IM1       162             0.0000000000
      7663       402  IM1       DC4           -35.7862260565       32.3288880312       22.1071418257  IM1       162             0.0000000000
      7664       402  IM1       H6            -35.2268333017       32.2140303953       23.0457140801  IM1       162             0.0000000000
      7665       402  IM1       N2            -36.0087215079       31.3551259820       21.2312915544  IM1       162             0.0000000000
      7666       402  IM1       DN2           -36.0120437464       31.3582150215       21.2263002498  IM1       162             0.0000000000
      7667       402  IM1       H7            -35.7371185457       30.3941556628       21.2839021670  IM1       162             0.0000000000
      7668       402  IM1       LPN21         -35.9253446298       31.0679450156       21.2552788164  IM1       162             0.0000000000
      7669       403  IM1       C1             18.2027136289       -7.2249250283      -14.3873230680  IM1       163             0.0000000000
      7670       403  IM1       DC1            18.2352661551       -7.2435478708      -14.3614557693  IM1       163             0.0000000000
      7671       403  IM1       H1             19.2952696591       -7.2405644424      -14.1863312032  IM1       163             0.0000000000
      7672       403  IM1       H2             17.6695094053       -8.0118984077      -13.8122690204  IM1       163             0.0000000000
      7673       403  IM1       H3             17.7897468326       -6.2221925171      -14.1458547748  IM1       163             0.0000000000
      7674       403  IM1       N1             17.9762162529       -7.4511974054      -15.7653321992  IM1       163             0.0000000000
      7675       403  IM1       DN1            17.9892560563       -7.4527000437      -15.7414877924  IM1       163             0.0000000000
      7676       403  IM1       C2             18.9356183833       -7.7474231364      -16.7090176910  IM1       163             0.0000000000
      7677       403  IM1       DC2            18.9591979897       -7.7497585891      -16.6642934765  IM1       163             0.0000000000
      7678       403  IM1       H4             19.9999831919       -7.7008912920      -16.5144634784  IM1       163             0.0000000000
      7679       403  IM1       C3             18.2512150319       -7.9181887287      -17.8890117175  IM1       163             0.0000000000
      7680       403  IM1       DC3            18.2756765545       -7.9058263998      -17.8578453052  IM1       163             0.0000000000
      7681       403  IM1       H5             18.6359246508       -8.1419698320      -18.8763361459  IM1       163             0.0000000000
      7682       403  IM1       C4             16.7738134583       -7.4609824846      -16.3957962353  IM1       163             0.0000000000
      7683       403  IM1       DC4            16.8110034656       -7.4678796674      -16.3828414933  IM1       163             0.0000000000
      7684       403  IM1       H6             15.8286175864       -7.2861660982      -15.8818468265  IM1       163             0.0000000000
      7685       403  IM1       N2             16.9200242039       -7.7299239496      -17.6836447160  IM1       163             0.0000000000
      7686       403  IM1       DN2            16.9398706324       -7.7331587906      -17.6794128182  IM1       163             0.0000000000
      7687       403  IM1       H7             16.1865266501       -7.8228103402      -18.3569599891  IM1       163             0.0000000000
      7688       403  IM1       LPN21          16.6987735091       -7.7449737199      -17.8856883609  IM1       163             0.0000000000
      7689       404  IM1       C1            -25.8693458111        8.2871856110       12.3616356023  IM1       164             0.0000000000
      7690       404  IM1       DC1           -25.8805320000        8.2748820990       12.3531332883  IM1       164             0.0000000000
      7691       404  IM1       H1            -24.7985570989        8.0387738573       12.5229555773  IM1       164             0.0000000000
      7692       404  IM1       H2            -26.4888175604        7.6581231065       13.0360658200  IM1       164             0.0000000000
      7693       404  IM1       H3            -26.0340290628        9.3637426685       12.5812382642  IM1       164             0.0000000000
      7694       404  IM1       N1            -26.2234796561        8.0134888463       11.0120084460  IM1       164             0.0000000000
      7695       404  IM1       DN1           -26.2326702069        8.0079427980       10.9937002626  IM1       164             0.0000000000
      7696       404  IM1       C2            -25.4030926902        7.5564256599        9.9997973772  IM1       164             0.0000000000
      7697       404  IM1       DC2           -25.4331738613        7.5413568661        9.9836904743  IM1       164             0.0000000000
      7698       404  IM1       H4            -24.3384205600        7.4303859445       10.1530169759  IM1       164             0.0000000000
      7699       404  IM1       C3            -26.2174502519        7.3438683319        8.9114247781  IM1       164             0.0000000000
      7700       404  IM1       DC3           -26.2264509312        7.3502029034        8.8870794773  IM1       164             0.0000000000
      7701       404  IM1       H5            -25.9371556880        7.0022069434        7.9226925316  IM1       164             0.0000000000
      7702       404  IM1       C4            -27.4870118997        8.0380115225       10.5060507357  IM1       164             0.0000000000
      7703       404  IM1       DC4           -27.4837338141        8.0399985264       10.5013997472  IM1       164             0.0000000000
      7704       404  IM1       H6            -28.3316991553        8.3913191336       11.0974703602  IM1       164             0.0000000000
      7705       404  IM1       N2            -27.5161468294        7.6331836355        9.2388483556  IM1       164             0.0000000000
      7706       404  IM1       DN2           -27.5210431445        7.6374240251        9.2309647854  IM1       164             0.0000000000
      7707       404  IM1       H7            -28.3152642677        7.6082762953        8.6381895970  IM1       164             0.0000000000
      7708       404  IM1       LPN21         -27.7604355670        7.6119516921        9.0660125454  IM1       164             0.0000000000
      7709       405  IM1       C1              8.1954427175       31.5097737388       -3.1398831808  IM1       165             0.0000000000
      7710       405  IM1       DC1             8.2018237088       31.5152767129       -3.1343800254  IM1       165             0.0000000000
      7711       405  IM1       H1              8.1055949734       30.4357742181       -2.8701177030  IM1       165             0.0000000000
      7712       405  IM1       H2              8.7661756465       32.0379596947       -2.3464069557  IM1       165             0.0000000000
      7713       405  IM1       H3              8.6942810660       31.6038121769       -4.1281331873  IM1       165             0.0000000000
      7714       405  IM1       N1              6.8950748015       32.0851750834       -3.2456964591  IM1       165             0.0000000000
      7715       405  IM1       DN1             6.9030362604       32.1026637397       -3.2481148079  IM1       165             0.0000000000
      7716       405  IM1       C2              5.6852461918       31.4511669267       -3.0886503016  IM1       165             0.0000000000
      7717       405  IM1       DC2             5.7059757797       31.4656439490       -3.0939321504  IM1       165             0.0000000000
      7718       405  IM1       H4              5.6116103031       30.4002273395       -2.8376667563  IM1       165             0.0000000000
      7719       405  IM1       C3              4.7186024721       32.4091573579       -3.2968558102  IM1       165             0.0000000000
      7720       405  IM1       DC3             4.7248305427       32.4195256464       -3.3054197044  IM1       165             0.0000000000
      7721       405  IM1       H5              3.6428954216       32.2877537477       -3.2651618835  IM1       165             0.0000000000
      7722       405  IM1       C4              6.6150545737       33.3811150961       -3.5495372475  IM1       165             0.0000000000
      7723       405  IM1       DC4             6.6243218896       33.3860203863       -3.5556130767  IM1       165             0.0000000000
      7724       405  IM1       H6              7.3998509268       34.1157754479       -3.7297284009  IM1       165             0.0000000000
      7725       405  IM1       N2              5.3084374741       33.6064463255       -3.5995704095  IM1       165             0.0000000000
      7726       405  IM1       DN2             5.3116055696       33.6144630809       -3.6071794803  IM1       165             0.0000000000
      7727       405  IM1       H7              4.8540614322       34.4801807021       -3.7731522393  IM1       165             0.0000000000
      7728       405  IM1       LPN21           5.1766892407       33.8680468447       -3.6644362042  IM1       165             0.0000000000
      7729       406  IM1       C1             31.1735102429       25.7452412202       -9.1349959069  IM1       166             0.0000000000
      7730       406  IM1       DC1            31.1788868863       25.7485577536       -9.1400351681  IM1       166             0.0000000000
      7731       406  IM1       H1             31.3489279766       26.8422897799       -9.1408332050  IM1       166             0.0000000000
      7732       406  IM1       H2             30.5958708361       25.4665803839       -8.2278014096  IM1       166             0.0000000000
      7733       406  IM1       H3             30.6191175959       25.4491448709      -10.0511273071  IM1       166             0.0000000000
      7734       406  IM1       N1             32.4230709269       25.0600723854       -9.1128675352  IM1       166             0.0000000000
      7735       406  IM1       DN1            32.4219032315       25.0575855512       -9.1152772680  IM1       166             0.0000000000
      7736       406  IM1       C2             33.6740426564       25.6361268600       -9.1254297810  IM1       166             0.0000000000
      7737       406  IM1       DC2            33.6571469679       25.6415030567       -9.1305339337  IM1       166             0.0000000000
      7738       406  IM1       H4             33.8087850229       26.7106356813       -9.1126123088  IM1       166             0.0000000000
      7739       406  IM1       C3             34.5737735824       24.5916997845       -9.1139048572  IM1       166             0.0000000000
      7740       406  IM1       DC3            34.5715647239       24.5975056502       -9.1165574236  IM1       166             0.0000000000
      7741       406  IM1       H5             35.6558652490       24.6355998931       -9.1076274779  IM1       166             0.0000000000
      7742       406  IM1       C4             32.6123282824       23.7122304371       -9.0997098900  IM1       166             0.0000000000
      7743       406  IM1       DC4            32.6096520600       23.7232841498       -9.1027637644  IM1       166             0.0000000000
      7744       406  IM1       H6             31.7812937685       23.0069859715       -9.0891325297  IM1       166             0.0000000000
      7745       406  IM1       N2             33.9034098764       23.4016668126       -9.1014160799  IM1       166             0.0000000000
      7746       406  IM1       DN2            33.9038013471       23.4062108941       -9.1028175395  IM1       166             0.0000000000
      7747       406  IM1       H7             34.2969063251       22.4825806262       -9.0804130297  IM1       166             0.0000000000
      7748       406  IM1       LPN21          34.0180300144       23.1244335989       -9.0994238102  IM1       166             0.0000000000
      7749       407  IM1       C1             29.4189964307      -16.3623832693      -21.3709401912  IM1       167             0.0000000000
      7750       407  IM1       DC1            29.4122214608      -16.3692303559      -21.3581392362  IM1       167             0.0000000000
      7751       407  IM1       H1             29.5079309988      -16.8265537048      -20.3654763921  IM1       167             0.0000000000
      7752       407  IM1       H2             29.5049847297      -15.2585087982      -21.2793532656  IM1       167             0.0000000000
      7753       407  IM1       H3             30.2010642204      -16.7728282824      -22.0449029969  IM1       167             0.0000000000
      7754       407  IM1       N1             28.1530972181      -16.6639180679      -21.9219843249  IM1       167             0.0000000000
      7755       407  IM1       DN1            28.1533327646      -16.6573145263      -21.9246311332  IM1       167             0.0000000000
      7756       407  IM1       C2             27.1567884044      -17.3605179837      -21.2846162655  IM1       167             0.0000000000
      7757       407  IM1       DC2            27.1834273879      -17.3410609276      -21.2725137253  IM1       167             0.0000000000
      7758       407  IM1       H4             27.2925302484      -17.8364753440      -20.3213262038  IM1       167             0.0000000000
      7759       407  IM1       C3             26.0980279776      -17.3926065877      -22.1566130656  IM1       167             0.0000000000
      7760       407  IM1       DC3            26.1147438682      -17.3720773559      -22.1428614533  IM1       167             0.0000000000
      7761       407  IM1       H5             25.1186195975      -17.8296413639      -22.0061177856  IM1       167             0.0000000000
      7762       407  IM1       C4             27.6681258352      -16.2844062430      -23.1347818190  IM1       167             0.0000000000
      7763       407  IM1       DC4            27.6708615713      -16.2830189846      -23.1219725545  IM1       167             0.0000000000
      7764       407  IM1       H6             28.2436549050      -15.6963469094      -23.8496611864  IM1       167             0.0000000000
      7765       407  IM1       N2             26.4233356594      -16.6999452762      -23.2969112551  IM1       167             0.0000000000
      7766       407  IM1       DN2            26.4257507875      -16.6954504690      -23.2853846051  IM1       167             0.0000000000
      7767       407  IM1       H7             25.8471866723      -16.5625002273      -24.1026166623  IM1       167             0.0000000000
      7768       407  IM1       LPN21          26.2529107609      -16.6485425833      -23.5383923457  IM1       167             0.0000000000
      7769       408  IM1       C1             32.1471592355        1.9495622020       36.5064038211  IM1       168             0.0000000000
      7770       408  IM1       DC1            32.1413383189        1.9379573949       36.5034729605  IM1       168             0.0000000000
      7771       408  IM1       H1             32.3132206655        0.8706519125       36.2997708402  IM1       168             0.0000000000
      7772       408  IM1       H2             32.4346523059        2.1904996076       37.5521656979  IM1       168             0.0000000000
      7773       408  IM1       H3             32.7489947493        2.5674389409       35.8061586135  IM1       168             0.0000000000
      7774       408  IM1       N1             30.7727242216        2.2696390429       36.3202386473  IM1       168             0.0000000000
      7775       408  IM1       DN1            30.7699621560        2.2799684196       36.3236403856  IM1       168             0.0000000000
      7776       408  IM1       C2             29.7440527091        1.3886520601       36.0733669415  IM1       168             0.0000000000
      7777       408  IM1       DC2            29.7605121999        1.3975214750       36.0850598306  IM1       168             0.0000000000
      7778       408  IM1       H4             29.9217994876        0.3421751495       35.8584689234  IM1       168             0.0000000000
      7779       408  IM1       C3             28.5827232024        2.1299314141       36.1123626097  IM1       168             0.0000000000
      7780       408  IM1       DC3            28.5897631147        2.1377764515       36.1197753626  IM1       168             0.0000000000
      7781       408  IM1       H5             27.5672767093        1.8042812655       35.9233932989  IM1       168             0.0000000000
      7782       408  IM1       C4             30.2048515713        3.4916697448       36.4913002589  IM1       168             0.0000000000
      7783       408  IM1       DC4            30.2036983877        3.4892858050       36.4998605688  IM1       168             0.0000000000
      7784       408  IM1       H6             30.7965021225        4.3835335451       36.6977671740  IM1       168             0.0000000000
      7785       408  IM1       N2             28.8834668815        3.4356099432       36.3849556193  IM1       168             0.0000000000
      7786       408  IM1       DN2            28.8849850156        3.4394574399       36.3900189987  IM1       168             0.0000000000
      7787       408  IM1       H7             28.2493099836        4.2076975180       36.4264984368  IM1       168             0.0000000000
      7788       408  IM1       LPN21          28.6947332120        3.6667669475       36.4157134042  IM1       168             0.0000000000
      7789       409  IM1       C1            -16.1598856762       -1.8598142324      -34.1251181644  IM1       169             0.0000000000
      7790       409  IM1       DC1           -16.1510118380       -1.8870688531      -34.1216902075  IM1       169             0.0000000000
      7791       409  IM1       H1            -16.3124147629       -2.5633537606      -34.9713380004  IM1       169             0.0000000000
      7792       409  IM1       H2            -16.3660309751       -2.3716985132      -33.1608569970  IM1       169             0.0000000000
      7793       409  IM1       H3            -15.1311222837       -1.4410404277      -34.1495186762  IM1       169             0.0000000000
      7794       409  IM1       N1            -17.0654842322       -0.7840958803      -34.2517767151  IM1       169             0.0000000000
      7795       409  IM1       DN1           -17.0471147185       -0.7993339696      -34.2315875655  IM1       169             0.0000000000
      7796       409  IM1       C2            -17.9844313039       -0.6241735015      -35.2568201375  IM1       169             0.0000000000
      7797       409  IM1       DC2           -17.9578119691       -0.6469344195      -35.2265640989  IM1       169             0.0000000000
      7798       409  IM1       H4            -18.1048117954       -1.3206106811      -36.0774130891  IM1       169             0.0000000000
      7799       409  IM1       C3            -18.6482407646        0.5452066290      -34.9728570361  IM1       169             0.0000000000
      7800       409  IM1       DC3           -18.6333644314        0.5297958582      -34.9652161526  IM1       169             0.0000000000
      7801       409  IM1       H5            -19.4800949572        0.9762000200      -35.5161362452  IM1       169             0.0000000000
      7802       409  IM1       C4            -17.2069105135        0.2708062702      -33.4029702266  IM1       169             0.0000000000
      7803       409  IM1       DC4           -17.2086466056        0.2533118030      -33.4007890924  IM1       169             0.0000000000
      7804       409  IM1       H6            -16.5920326970        0.4059140330      -32.5131549855  IM1       169             0.0000000000
      7805       409  IM1       N2            -18.1742146695        1.0783916989      -33.8018661088  IM1       169             0.0000000000
      7806       409  IM1       DN2           -18.1699729356        1.0708892840      -33.7985233812  IM1       169             0.0000000000
      7807       409  IM1       H7            -18.4762992823        1.9216483918      -33.3572729954  IM1       169             0.0000000000
      7808       409  IM1       LPN21         -18.2653061451        1.3260746700      -33.6591934454  IM1       169             0.0000000000
      7809       410  IM1       C1             -7.5590477743      -21.4458008491      -26.6088723565  IM1       170             0.0000000000
      7810       410  IM1       DC1            -7.5541456584      -21.4441803716      -26.6091147339  IM1       170             0.0000000000
      7811       410  IM1       H1             -7.4541233725      -20.3763173643      -26.8908598496  IM1       170             0.0000000000
      7812       410  IM1       H2             -7.8356282181      -22.0522183795      -27.4977379464  IM1       170             0.0000000000
      7813       410  IM1       H3             -6.6060354991      -21.8120939847      -26.1707879535  IM1       170             0.0000000000
      7814       410  IM1       N1             -8.5966524979      -21.5813438038      -25.6450404263  IM1       170             0.0000000000
      7815       410  IM1       DN1            -8.5906471291      -21.5898297293      -25.6459350972  IM1       170             0.0000000000
      7816       410  IM1       C2             -9.4055688799      -20.5806976062      -25.1582678915  IM1       170             0.0000000000
      7817       410  IM1       DC2            -9.3869547321      -20.5996565034      -25.1552099853  IM1       170             0.0000000000
      7818       410  IM1       H4             -9.3224773876      -19.5597198945      -25.5098206130  IM1       170             0.0000000000
      7819       410  IM1       C3            -10.1739854859      -21.1623632202      -24.1720791977  IM1       170             0.0000000000
      7820       410  IM1       DC3           -10.1763129537      -21.1663607285      -24.1652627963  IM1       170             0.0000000000
      7821       410  IM1       H5            -10.9126917131      -20.7042488760      -23.5260657632  IM1       170             0.0000000000
      7822       410  IM1       C4             -8.9135357015      -22.7084360380      -24.9523534200  IM1       170             0.0000000000
      7823       410  IM1       DC4            -8.9118126225      -22.7020888644      -24.9555481014  IM1       170             0.0000000000
      7824       410  IM1       H6             -8.4299164556      -23.6661036938      -25.1449283041  IM1       170             0.0000000000
      7825       410  IM1       N2             -9.8650579594      -22.4810873866      -24.0544265796  IM1       170             0.0000000000
      7826       410  IM1       DN2            -9.8658594478      -22.4821031695      -24.0530731486  IM1       170             0.0000000000
      7827       410  IM1       H7            -10.2712083613      -23.1435653889      -23.4250103837  IM1       170             0.0000000000
      7828       410  IM1       LPN21          -9.9837763746      -22.6828075227      -23.8667701792  IM1       170             0.0000000000
      7829       411  IM1       C1             12.1537118322        3.5425181041       36.2431232487  IM1       171             0.0000000000
      7830       411  IM1       DC1            12.1457309840        3.5296516538       36.2516547286  IM1       171             0.0000000000
      7831       411  IM1       H1             12.4349186019        2.5021796296       36.5131965928  IM1       171             0.0000000000
      7832       411  IM1       H2             12.7822277923        4.2706129294       36.7991507797  IM1       171             0.0000000000
      7833       411  IM1       H3             12.2556324760        3.7048214117       35.1487783216  IM1       171             0.0000000000
      7834       411  IM1       N1             10.8125444590        3.7677469355       36.5658316331  IM1       171             0.0000000000
      7835       411  IM1       DN1            10.8074253319        3.7725581231       36.5687390902  IM1       171             0.0000000000
      7836       411  IM1       C2              9.8810092688        2.8438860329       36.9549652313  IM1       171             0.0000000000
      7837       411  IM1       DC2             9.9043445541        2.8416193830       36.9656443437  IM1       171             0.0000000000
      7838       411  IM1       H4             10.1229627790        1.7899168520       36.8958343213  IM1       171             0.0000000000
      7839       411  IM1       C3              8.6733184888        3.5013920290       37.0274547024  IM1       171             0.0000000000
      7840       411  IM1       DC3             8.7020571183        3.4965347464       37.0382752928  IM1       171             0.0000000000
      7841       411  IM1       H5              7.7089501039        3.1086514503       37.3251751349  IM1       171             0.0000000000
      7842       411  IM1       C4             10.1561820994        4.9271145025       36.3741511144  IM1       171             0.0000000000
      7843       411  IM1       DC4            10.1620258495        4.9234397990       36.3783889283  IM1       171             0.0000000000
      7844       411  IM1       H6             10.6592204443        5.8287558929       36.0247298404  IM1       171             0.0000000000
      7845       411  IM1       N2              8.8610659085        4.7973625463       36.6340585209  IM1       171             0.0000000000
      7846       411  IM1       DN2             8.8722686051        4.7959413847       36.6221902108  IM1       171             0.0000000000
      7847       411  IM1       H7              8.1701988978        5.5189699048       36.5894985211  IM1       171             0.0000000000
      7848       411  IM1       LPN21           8.6552389822        5.0142004099       36.6092267406  IM1       171             0.0000000000
      7849       412  IM1       C1              5.6175375575       11.7951847318        9.2733283182  IM1       172             0.0000000000
      7850       412  IM1       DC1             5.6169479738       11.7933849695        9.2624538096  IM1       172             0.0000000000
      7851       412  IM1       H1              4.9845763117       12.5722266929        8.7938631442  IM1       172             0.0000000000
      7852       412  IM1       H2              5.1982683497       11.5499907613       10.2725351277  IM1       172             0.0000000000
      7853       412  IM1       H3              5.6366841966       10.8863844790        8.6345509634  IM1       172             0.0000000000
      7854       412  IM1       N1              6.9526421753       12.2959440703        9.4301258817  IM1       172             0.0000000000
      7855       412  IM1       DN1             6.9559108057       12.2872735164        9.4350740210  IM1       172             0.0000000000
      7856       412  IM1       C2              7.4201429452       13.5249822258        9.0219544323  IM1       172             0.0000000000
      7857       412  IM1       DC2             7.4129871162       13.5118733145        9.0298977919  IM1       172             0.0000000000
      7858       412  IM1       H4              6.7708128653       14.2559631307        8.5562008877  IM1       172             0.0000000000
      7859       412  IM1       C3              8.7696254402       13.5379366968        9.3047706196  IM1       172             0.0000000000
      7860       412  IM1       DC3             8.7778179744       13.5310141123        9.3121025143  IM1       172             0.0000000000
      7861       412  IM1       H5              9.4851580690       14.3295797554        9.1198292066  IM1       172             0.0000000000
      7862       412  IM1       C4              8.0256284010       11.6284225124        9.9411227567  IM1       172             0.0000000000
      7863       412  IM1       DC4             8.0253606569       11.6241136955        9.9360925294  IM1       172             0.0000000000
      7864       412  IM1       H6              7.9446951580       10.6114867754       10.3250387853  IM1       172             0.0000000000
      7865       412  IM1       N2              9.1380029873       12.3493640809        9.8751593041  IM1       172             0.0000000000
      7866       412  IM1       DN2             9.1496812486       12.3437501268        9.8769234799  IM1       172             0.0000000000
      7867       412  IM1       H7             10.0523691506       12.0685169544       10.1668087699  IM1       172             0.0000000000
      7868       412  IM1       LPN21           9.4100615754       12.2633938790        9.9678590829  IM1       172             0.0000000000
      7869       413  IM1       C1             21.5136701434      -36.1910173470       19.5865237127  IM1       173             0.0000000000
      7870       413  IM1       DC1            21.5021818466      -36.2191433201       19.6007618767  IM1       173             0.0000000000
      7871       413  IM1       H1             22.0273150603      -36.0170240348       20.5561711891  IM1       173             0.0000000000
      7872       413  IM1       H2             21.5947664540      -35.3179753964       18.9042172264  IM1       173             0.0000000000
      7873       413  IM1       H3             21.9393773149      -37.0408173166       19.0112547183  IM1       173             0.0000000000
      7874       413  IM1       N1             20.1325601836      -36.2801369537       19.6847587802  IM1       173             0.0000000000
      7875       413  IM1       DN1            20.1183209526      -36.2867886590       19.6892439584  IM1       173             0.0000000000
      7876       413  IM1       C2             19.4622440669      -36.4919718403       20.8577452661  IM1       173             0.0000000000
      7877       413  IM1       DC2            19.4649538541      -36.5083249928       20.8530472846  IM1       173             0.0000000000
      7878       413  IM1       H4             19.9657428519      -36.3691277109       21.8086854815  IM1       173             0.0000000000
      7879       413  IM1       C3             18.2106873120      -36.9314826725       20.4974119071  IM1       173             0.0000000000
      7880       413  IM1       DC3            18.2246903673      -36.9613308413       20.4874406809  IM1       173             0.0000000000
      7881       413  IM1       H5             17.4009002025      -37.2624303832       21.1358533296  IM1       173             0.0000000000
      7882       413  IM1       C4             19.2880575860      -36.5771149345       18.6580319075  IM1       173             0.0000000000
      7883       413  IM1       DC4            19.2898198449      -36.5855008356       18.6707298646  IM1       173             0.0000000000
      7884       413  IM1       H6             19.5932872167      -36.5522650330       17.6119356619  IM1       173             0.0000000000
      7885       413  IM1       N2             18.1198714452      -36.9973397361       19.1283998424  IM1       173             0.0000000000
      7886       413  IM1       DN2            18.1262042722      -37.0072929956       19.1382784380  IM1       173             0.0000000000
      7887       413  IM1       H7             17.3354203999      -37.3040439700       18.5893552520  IM1       173             0.0000000000
      7888       413  IM1       LPN21          17.8869511357      -37.0872682712       18.9620839142  IM1       173             0.0000000000
      7889       414  IM1       C1            -11.1726832015      -14.0407655389      -26.4089290128  IM1       174             0.0000000000
      7890       414  IM1       DC1           -11.1642160622      -14.0401369842      -26.4082665400  IM1       174             0.0000000000
      7891       414  IM1       H1            -11.2978367840      -13.6043609182      -25.3949228053  IM1       174             0.0000000000
      7892       414  IM1       H2            -12.1632001379      -14.3734396192      -26.7864540516  IM1       174             0.0000000000
      7893       414  IM1       H3            -10.7305645563      -13.2821378968      -27.0896170519  IM1       174             0.0000000000
      7894       414  IM1       N1            -10.2958042136      -15.1709858123      -26.3393525905  IM1       174             0.0000000000
      7895       414  IM1       DN1           -10.2935254839      -15.1721738020      -26.3441709391  IM1       174             0.0000000000
      7896       414  IM1       C2             -9.6712148268      -15.6613882424      -25.2119173486  IM1       174             0.0000000000
      7897       414  IM1       DC2            -9.6759635833      -15.6506719022      -25.2263804216  IM1       174             0.0000000000
      7898       414  IM1       H4             -9.8110759771      -15.2132618594      -24.2359508514  IM1       174             0.0000000000
      7899       414  IM1       C3             -8.9041177181      -16.7284680567      -25.6268651969  IM1       174             0.0000000000
      7900       414  IM1       DC3            -8.9046175825      -16.7308777470      -25.6316679133  IM1       174             0.0000000000
      7901       414  IM1       H5             -8.2685664536      -17.3719064042      -25.0310878194  IM1       174             0.0000000000
      7902       414  IM1       C4             -9.8877119648      -15.9535379832      -27.3770475383  IM1       174             0.0000000000
      7903       414  IM1       DC4            -9.8916932533      -15.9472435176      -27.3701336121  IM1       174             0.0000000000
      7904       414  IM1       H6            -10.2297702295      -15.7906361698      -28.3990843012  IM1       174             0.0000000000
      7905       414  IM1       N2             -9.0456033390      -16.9004949777      -26.9737194671  IM1       174             0.0000000000
      7906       414  IM1       DN2            -9.0418972881      -16.8988648980      -26.9712884271  IM1       174             0.0000000000
      7907       414  IM1       H7             -8.6237672047      -17.6036293583      -27.5461321841  IM1       174             0.0000000000
      7908       414  IM1       LPN21          -8.9161008511      -17.1073462884      -27.1481947974  IM1       174             0.0000000000
      7909       415  IM1       C1            -15.3585970758      -32.0161534708      -21.6138008888  IM1       175             0.0000000000
      7910       415  IM1       DC1           -15.3703627514      -32.0211709123      -21.6178082823  IM1       175             0.0000000000
      7911       415  IM1       H1            -16.2494865569      -31.5235469006      -21.1688562851  IM1       175             0.0000000000
      7912       415  IM1       H2            -15.2610186433      -33.0463069212      -21.2093465427  IM1       175             0.0000000000
      7913       415  IM1       H3            -15.4631636689      -32.0313276523      -22.7197649813  IM1       175             0.0000000000
      7914       415  IM1       N1            -14.1811745059      -31.2802979451      -21.2702235611  IM1       175             0.0000000000
      7915       415  IM1       DN1           -14.1821939556      -31.2862778614      -21.2774125772  IM1       175             0.0000000000
      7916       415  IM1       C2            -14.1313397117      -30.1826751090      -20.4404266069  IM1       175             0.0000000000
      7917       415  IM1       DC2           -14.1313343752      -30.1990309604      -20.4500779736  IM1       175             0.0000000000
      7918       415  IM1       H4            -15.0329232011      -29.7156449333      -20.0637051891  IM1       175             0.0000000000
      7919       415  IM1       C3            -12.7966122390      -29.9066608108      -20.2372870312  IM1       175             0.0000000000
      7920       415  IM1       DC3           -12.7955442129      -29.9023771941      -20.2335628864  IM1       175             0.0000000000
      7921       415  IM1       H5            -12.3589121467      -29.1191676314      -19.6363193769  IM1       175             0.0000000000
      7922       415  IM1       C4            -12.8881668262      -31.6225395593      -21.5295753592  IM1       175             0.0000000000
      7923       415  IM1       DC4           -12.8944741500      -31.6269337914      -21.5338644369  IM1       175             0.0000000000
      7924       415  IM1       H6            -12.6206431770      -32.4772676477      -22.1508409964  IM1       175             0.0000000000
      7925       415  IM1       N2            -12.0342416577      -30.8069868148      -20.9222027014  IM1       175             0.0000000000
      7926       415  IM1       DN2           -12.0403622950      -30.8068076335      -20.9213659109  IM1       175             0.0000000000
      7927       415  IM1       H7            -11.0357748661      -30.8523975560      -20.9538559896  IM1       175             0.0000000000
      7928       415  IM1       LPN21         -11.7350003851      -30.8227236764      -20.9365906113  IM1       175             0.0000000000
      7929       416  IM1       C1             -2.2912759565        4.1148677424        6.5868477753  IM1       176             0.0000000000
      7930       416  IM1       DC1            -2.2713177135        4.1150670753        6.5837089186  IM1       176             0.0000000000
      7931       416  IM1       H1             -1.7302237237        4.9184529958        7.1100992760  IM1       176             0.0000000000
      7932       416  IM1       H2             -3.0896929068        3.7252305229        7.2539566199  IM1       176             0.0000000000
      7933       416  IM1       H3             -2.7379510571        4.5100133075        5.6494778721  IM1       176             0.0000000000
      7934       416  IM1       N1             -1.4143164143        3.0560867927        6.2318170337  IM1       176             0.0000000000
      7935       416  IM1       DN1            -1.4056432474        3.0503554496        6.2296169155  IM1       176             0.0000000000
      7936       416  IM1       C2             -0.0550883359        3.0404744791        6.4231720606  IM1       176             0.0000000000
      7937       416  IM1       DC2            -0.0571058512        3.0372499765        6.4114995420  IM1       176             0.0000000000
      7938       416  IM1       H4              0.4368582046        3.8484857821        6.9504246914  IM1       176             0.0000000000
      7939       416  IM1       C3              0.3873835893        1.8299723344        5.9394615137  IM1       176             0.0000000000
      7940       416  IM1       DC3             0.4042989620        1.8194570523        5.9371663812  IM1       176             0.0000000000
      7941       416  IM1       H5              1.3928042185        1.4277761067        5.9554787788  IM1       176             0.0000000000
      7942       416  IM1       C4             -1.7332743387        1.8873054874        5.6111775297  IM1       176             0.0000000000
      7943       416  IM1       DC4            -1.7227887957        1.8967890723        5.6116709093  IM1       176             0.0000000000
      7944       416  IM1       H6             -2.7567765887        1.6449994071        5.3251165089  IM1       176             0.0000000000
      7945       416  IM1       N2             -0.6569926326        1.1267818754        5.4222509007  IM1       176             0.0000000000
      7946       416  IM1       DN2            -0.6481047892        1.1266963662        5.4213452256  IM1       176             0.0000000000
      7947       416  IM1       H7             -0.6335627746        0.2176813878        5.0063334266  IM1       176             0.0000000000
      7948       416  IM1       LPN21          -0.6511558050        0.8566360017        5.2919161841  IM1       176             0.0000000000
      7949       417  IM1       C1             34.5772092383       31.2219072383       15.1182019062  IM1       177             0.0000000000
      7950       417  IM1       DC1            34.5796419729       31.2293455128       15.1135859479  IM1       177             0.0000000000
      7951       417  IM1       H1             34.4215402692       32.3216722808       15.1427991285  IM1       177             0.0000000000
      7952       417  IM1       H2             35.4203000629       30.9685672139       14.4404573408  IM1       177             0.0000000000
      7953       417  IM1       H3             34.7850075574       30.8364471455       16.1392608548  IM1       177             0.0000000000
      7954       417  IM1       N1             33.3949816221       30.5785054268       14.6593420469  IM1       177             0.0000000000
      7955       417  IM1       DN1            33.4090771690       30.5624343680       14.6623979693  IM1       177             0.0000000000
      7956       417  IM1       C2             32.2444843394       31.1836321061       14.2199237219  IM1       177             0.0000000000
      7957       417  IM1       DC2            32.2690546844       31.1624620331       14.2317219112  IM1       177             0.0000000000
      7958       417  IM1       H4             32.1477227909       32.2610925944       14.1688835328  IM1       177             0.0000000000
      7959       417  IM1       C3             31.3851298526       30.1638064499       13.8669774738  IM1       177             0.0000000000
      7960       417  IM1       DC3            31.3899940347       30.1418895813       13.8723815733  IM1       177             0.0000000000
      7961       417  IM1       H5             30.3767198030       30.2493790584       13.4813928522  IM1       177             0.0000000000
      7962       417  IM1       C4             33.1956623428       29.2358024055       14.5573917586  IM1       177             0.0000000000
      7963       417  IM1       DC4            33.1989529187       29.2280354621       14.5545915402  IM1       177             0.0000000000
      7964       417  IM1       H6             33.9636392220       28.5201110037       14.8508152280  IM1       177             0.0000000000
      7965       417  IM1       N2             31.9964933413       28.9481183740       14.0634343497  IM1       177             0.0000000000
      7966       417  IM1       DN2            32.0010312041       28.9250775867       14.0554153844  IM1       177             0.0000000000
      7967       417  IM1       H7             31.6119522134       28.0394340113       13.9008894328  IM1       177             0.0000000000
      7968       417  IM1       LPN21          31.8891035945       28.6733226617       14.0090766568  IM1       177             0.0000000000
      7969       418  IM1       C1             26.1664458774       -4.1888344027       28.6121499153  IM1       178             0.0000000000
      7970       418  IM1       DC1            26.1956116832       -4.2245305869       28.6097615763  IM1       178             0.0000000000
      7971       418  IM1       H1             27.1156567861       -3.6255888458       28.7389335683  IM1       178             0.0000000000
      7972       418  IM1       H2             25.4970726592       -3.8772345476       29.4423101562  IM1       178             0.0000000000
      7973       418  IM1       H3             25.6972713842       -3.9556151468       27.6324534962  IM1       178             0.0000000000
      7974       418  IM1       N1             26.4038859331       -5.5880538956       28.7171920322  IM1       178             0.0000000000
      7975       418  IM1       DN1            26.4275941650       -5.6241168498       28.7180109953  IM1       178             0.0000000000
      7976       418  IM1       C2             27.6231763196       -6.2149402490       28.8639036529  IM1       178             0.0000000000
      7977       418  IM1       DC2            27.6377413113       -6.2389820200       28.8709242579  IM1       178             0.0000000000
      7978       418  IM1       H4             28.5433267056       -5.6447222259       28.8312896503  IM1       178             0.0000000000
      7979       418  IM1       C3             27.3463232626       -7.5549399931       29.0050415686  IM1       178             0.0000000000
      7980       418  IM1       DC3            27.3556491765       -7.5862952378       29.0129796788  IM1       178             0.0000000000
      7981       418  IM1       H5             28.0456459692       -8.3744110118       29.1159649727  IM1       178             0.0000000000
      7982       418  IM1       C4             25.4559331634       -6.5654974432       28.7651711129  IM1       178             0.0000000000
      7983       418  IM1       DC4            25.4737323459       -6.5764857914       28.7613406811  IM1       178             0.0000000000
      7984       418  IM1       H6             24.3954245160       -6.3277291158       28.6821793586  IM1       178             0.0000000000
      7985       418  IM1       N2             26.0045775695       -7.7732708890       28.9194206365  IM1       178             0.0000000000
      7986       418  IM1       DN2            26.0133729956       -7.7918564960       28.9154658426  IM1       178             0.0000000000
      7987       418  IM1       H7             25.5186455599       -8.6447542139       28.9856542878  IM1       178             0.0000000000
      7988       418  IM1       LPN21          25.8588525453       -8.0351973222       28.9320206736  IM1       178             0.0000000000
      7989       419  IM1       C1            -10.1014864276       20.9334939239       18.9509440384  IM1       179             0.0000000000
      7990       419  IM1       DC1           -10.1190886923       20.9281723411       18.9603918115  IM1       179             0.0000000000
      7991       419  IM1       H1            -10.6090899723       20.4330071124       18.0987864272  IM1       179             0.0000000000
      7992       419  IM1       H2             -9.1786879333       20.3652618046       19.1956401722  IM1       179             0.0000000000
      7993       419  IM1       H3             -9.8396553355       21.9726816478       18.6579349026  IM1       179             0.0000000000
      7994       419  IM1       N1            -10.9759241793       20.9621845250       20.0951748824  IM1       179             0.0000000000
      7995       419  IM1       DN1           -10.9877003913       20.9640731773       20.1082594556  IM1       179             0.0000000000
      7996       419  IM1       C2            -12.2517443566       20.4586623139       20.1248244595  IM1       179             0.0000000000
      7997       419  IM1       DC2           -12.2516054781       20.4665900493       20.1298494885  IM1       179             0.0000000000
      7998       419  IM1       H4            -12.6752467493       19.9847574542       19.2479271410  IM1       179             0.0000000000
      7999       419  IM1       C3            -12.7243990849       20.6489874307       21.4058817104  IM1       179             0.0000000000
      8000       419  IM1       DC3           -12.7315852759       20.6526628701       21.4196779174  IM1       179             0.0000000000
      8001       419  IM1       H5            -13.6783411569       20.3486095101       21.8214014190  IM1       179             0.0000000000
      8002       419  IM1       C4            -10.7513090379       21.4644695763       21.3456153759  IM1       179             0.0000000000
      8003       419  IM1       DC4           -10.7598063137       21.4651089541       21.3400720348  IM1       179             0.0000000000
      8004       419  IM1       H6             -9.8327972626       21.9882677710       21.6103257270  IM1       179             0.0000000000
      8005       419  IM1       N2            -11.7891044791       21.2865975364       22.1556567469  IM1       179             0.0000000000
      8006       419  IM1       DN2           -11.7961594321       21.2883923250       22.1582588458  IM1       179             0.0000000000
      8007       419  IM1       H7            -11.8447444544       21.5506024897       23.1185718926  IM1       179             0.0000000000
      8008       419  IM1       LPN21         -11.8079283328       21.3712635385       22.4428454142  IM1       179             0.0000000000
      8009       420  IM1       C1            -18.1483061666       -0.0851589503        8.0459925062  IM1       180             0.0000000000
      8010       420  IM1       DC1           -18.1530626246       -0.0887870258        8.0249521388  IM1       180             0.0000000000
      8011       420  IM1       H1            -17.2385219944        0.4691703684        8.3611635191  IM1       180             0.0000000000
      8012       420  IM1       H2            -18.9955103710        0.2156430542        8.6987437528  IM1       180             0.0000000000
      8013       420  IM1       H3            -18.3682443334        0.1442714595        6.9814222221  IM1       180             0.0000000000
      8014       420  IM1       N1            -17.9283207805       -1.4927987594        8.1884920165  IM1       180             0.0000000000
      8015       420  IM1       DN1           -17.9538446398       -1.4995295488        8.1714161243  IM1       180             0.0000000000
      8016       420  IM1       C2            -16.7773160310       -2.1462419742        8.5508805274  IM1       180             0.0000000000
      8017       420  IM1       DC2           -16.8108101855       -2.1375937275        8.5237773343  IM1       180             0.0000000000
      8018       420  IM1       H4            -15.9072252315       -1.6216557478        8.9259009158  IM1       180             0.0000000000
      8019       420  IM1       C3            -17.0552319641       -3.4978501535        8.4667709388  IM1       180             0.0000000000
      8020       420  IM1       DC3           -17.0790160758       -3.5019219094        8.4339178145  IM1       180             0.0000000000
      8021       420  IM1       H5            -16.4113931724       -4.3283028380        8.7288948617  IM1       180             0.0000000000
      8022       420  IM1       C4            -18.8261453723       -2.4621542860        7.8855545796  IM1       180             0.0000000000
      8023       420  IM1       DC4           -18.8422759423       -2.4670054719        7.8703609617  IM1       180             0.0000000000
      8024       420  IM1       H6            -19.8455606331       -2.2054374452        7.5974764831  IM1       180             0.0000000000
      8025       420  IM1       N2            -18.3356285313       -3.6873426523        8.0091713913  IM1       180             0.0000000000
      8026       420  IM1       DN2           -18.3587006242       -3.7031656030        7.9931797533  IM1       180             0.0000000000
      8027       420  IM1       H7            -18.8249621291       -4.5504877490        7.8845392444  IM1       180             0.0000000000
      8028       420  IM1       LPN21         -18.4789105642       -3.9438585221        7.9485919593  IM1       180             0.0000000000
      8029       421  IM1       C1            -25.0361529112        1.0393075976       16.9340734878  IM1       181             0.0000000000
      8030       421  IM1       DC1           -25.0470522650        1.0583577566       16.9374716382  IM1       181             0.0000000000
      8031       421  IM1       H1            -25.0863739652        2.1202115137       16.6821894459  IM1       181             0.0000000000
      8032       421  IM1       H2            -24.4895525125        0.9047880052       17.8919114091  IM1       181             0.0000000000
      8033       421  IM1       H3            -26.0642269451        0.6241982904       17.0052707200  IM1       181             0.0000000000
      8034       421  IM1       N1            -24.3290151677        0.3511577129       15.9102865900  IM1       181             0.0000000000
      8035       421  IM1       DN1           -24.3487325740        0.3490975920       15.9275162655  IM1       181             0.0000000000
      8036       421  IM1       C2            -23.8410313156        0.9157963198       14.7611316158  IM1       181             0.0000000000
      8037       421  IM1       DC2           -23.8856795708        0.9235346535       14.7886440690  IM1       181             0.0000000000
      8038       421  IM1       H4            -23.8562839820        1.9871805562       14.6036763072  IM1       181             0.0000000000
      8039       421  IM1       C3            -23.2534166398       -0.1085387046       14.0454198506  IM1       181             0.0000000000
      8040       421  IM1       DC3           -23.3001053655       -0.0988322222       14.0528626434  IM1       181             0.0000000000
      8041       421  IM1       H5            -22.7103937284       -0.0588701809       13.1097125484  IM1       181             0.0000000000
      8042       421  IM1       C4            -24.0705539397       -0.9801911963       15.8262156068  IM1       181             0.0000000000
      8043       421  IM1       DC4           -24.0858606013       -0.9673360759       15.8297676771  IM1       181             0.0000000000
      8044       421  IM1       H6            -24.3732039092       -1.6864164620       16.5993578124  IM1       181             0.0000000000
      8045       421  IM1       N2            -23.4655247876       -1.2930960232       14.6891944714  IM1       181             0.0000000000
      8046       421  IM1       DN2           -23.4850567770       -1.2934455498       14.6858800994  IM1       181             0.0000000000
      8047       421  IM1       H7            -23.1469931232       -2.1995588150       14.4119530834  IM1       181             0.0000000000
      8048       421  IM1       LPN21         -23.3929982657       -1.5695993507       14.5981680275  IM1       181             0.0000000000
      8049       422  IM1       C1            -31.7689662966      -21.8874037748       24.9485179944  IM1       182             0.0000000000
      8050       422  IM1       DC1           -31.7863724307      -21.8735885396       24.9427530169  IM1       182             0.0000000000
      8051       422  IM1       H1            -31.7153667813      -20.8277014392       25.2778795774  IM1       182             0.0000000000
      8052       422  IM1       H2            -30.8107137851      -22.1871671457       24.4728972992  IM1       182             0.0000000000
      8053       422  IM1       H3            -31.9659178834      -22.5494619096       25.8186961946  IM1       182             0.0000000000
      8054       422  IM1       N1            -32.8125642955      -22.0488053697       24.0111661061  IM1       182             0.0000000000
      8055       422  IM1       DN1           -32.8229325707      -22.0428142725       23.9982889198  IM1       182             0.0000000000
      8056       422  IM1       C2            -33.5790409587      -21.0511908242       23.4680503097  IM1       182             0.0000000000
      8057       422  IM1       DC2           -33.5773981866      -21.0427336506       23.4669963211  IM1       182             0.0000000000
      8058       422  IM1       H4            -33.5290712155      -20.0447555534       23.8648878967  IM1       182             0.0000000000
      8059       422  IM1       C3            -34.3332476019      -21.6391841162       22.4771812161  IM1       182             0.0000000000
      8060       422  IM1       DC3           -34.3358728252      -21.6346742061       22.4635016686  IM1       182             0.0000000000
      8061       422  IM1       H5            -35.0664874372      -21.1759917244       21.8285664213  IM1       182             0.0000000000
      8062       422  IM1       C4            -33.1391215929      -23.1891277415       23.3555573470  IM1       182             0.0000000000
      8063       422  IM1       DC4           -33.1398776294      -23.1757456244       23.3522981947  IM1       182             0.0000000000
      8064       422  IM1       H6            -32.6772309685      -24.1400208198       23.6211875516  IM1       182             0.0000000000
      8065       422  IM1       N2            -34.0505372604      -22.9696320824       22.4102918973  IM1       182             0.0000000000
      8066       422  IM1       DN2           -34.0543140820      -22.9657526921       22.4009894498  IM1       182             0.0000000000
      8067       422  IM1       H7            -34.4607156667      -23.6529511881       21.8062814050  IM1       182             0.0000000000
      8068       422  IM1       LPN21         -34.1662847046      -23.1742527273       22.2239241940  IM1       182             0.0000000000
      8069       423  IM1       C1             12.7040211111        8.7658864016       29.9896082869  IM1       183             0.0000000000
      8070       423  IM1       DC1            12.6902520914        8.7691701324       29.9843463016  IM1       183             0.0000000000
      8071       423  IM1       H1             13.0359829593        7.7484645456       29.6913213474  IM1       183             0.0000000000
      8072       423  IM1       H2             12.7713170431        8.8703822326       31.0936340476  IM1       183             0.0000000000
      8073       423  IM1       H3             13.3387125020        9.5290422068       29.4905280772  IM1       183             0.0000000000
      8074       423  IM1       N1             11.3571179443        8.9574610388       29.5876422328  IM1       183             0.0000000000
      8075       423  IM1       DN1            11.3455382653        8.9872149150       29.5897737991  IM1       183             0.0000000000
      8076       423  IM1       C2             10.5395742688        8.0461630674       28.9635558135  IM1       183             0.0000000000
      8077       423  IM1       DC2            10.5528533968        8.0705487168       28.9758014835  IM1       183             0.0000000000
      8078       423  IM1       H4             10.9052816012        7.0735566226       28.6582955138  IM1       183             0.0000000000
      8079       423  IM1       C3              9.3296715455        8.6754160557       28.7667576900  IM1       183             0.0000000000
      8080       423  IM1       DC3             9.3292036959        8.6948672863       28.7911361230  IM1       183             0.0000000000
      8081       423  IM1       H5              8.4509801804        8.2923587576       28.2627164306  IM1       183             0.0000000000
      8082       423  IM1       C4             10.6254697621       10.0864341764       29.7575076596  IM1       183             0.0000000000
      8083       423  IM1       DC4            10.6165488955       10.1042495052       29.7655847205  IM1       183             0.0000000000
      8084       423  IM1       H6             11.0452489299       10.9857903531       30.2081116071  IM1       183             0.0000000000
      8085       423  IM1       N2              9.3889454571        9.9409142116       29.3036313162  IM1       183             0.0000000000
      8086       423  IM1       DN2             9.3778666525        9.9594753829       29.3349841090  IM1       183             0.0000000000
      8087       423  IM1       H7              8.6743621506       10.6393770037       29.2646386760  IM1       183             0.0000000000
      8088       423  IM1       LPN21           9.1719082482       10.1474569763       29.3189589461  IM1       183             0.0000000000
      8089       424  IM1       C1              3.1997229915      -35.3891852621       19.5642068090  IM1       184             0.0000000000
      8090       424  IM1       DC1             3.2032400449      -35.3744559075       19.5701314974  IM1       184             0.0000000000
      8091       424  IM1       H1              3.7751528280      -36.1628908104       20.1160955915  IM1       184             0.0000000000
      8092       424  IM1       H2              3.7568132693      -35.1809096120       18.6258078129  IM1       184             0.0000000000
      8093       424  IM1       H3              2.1484120288      -35.6962735783       19.3777583498  IM1       184             0.0000000000
      8094       424  IM1       N1              3.2378390698      -34.3219842668       20.4383838812  IM1       184             0.0000000000
      8095       424  IM1       DN1             3.2338443689      -34.3031321179       20.4354017042  IM1       184             0.0000000000
      8096       424  IM1       C2              3.5897437241      -34.3384276755       21.7677995952  IM1       184             0.0000000000
      8097       424  IM1       DC2             3.5832468985      -34.3260570712       21.7480343738  IM1       184             0.0000000000
      8098       424  IM1       H4              3.8382576641      -35.2574807083       22.2840082201  IM1       184             0.0000000000
      8099       424  IM1       C3              3.5814065331      -33.0211118969       22.1575336232  IM1       184             0.0000000000
      8100       424  IM1       DC3             3.5712753524      -33.0055290233       22.1563482652  IM1       184             0.0000000000
      8101       424  IM1       H5              3.8640653510      -32.6165864701       23.1215627575  IM1       184             0.0000000000
      8102       424  IM1       C4              3.0168759898      -33.0444516138       20.0811530328  IM1       184             0.0000000000
      8103       424  IM1       DC4             3.0172159317      -33.0384627899       20.0749257330  IM1       184             0.0000000000
      8104       424  IM1       H6              2.7537913216      -32.7934498872       19.0535905819  IM1       184             0.0000000000
      8105       424  IM1       N2              3.1975973786      -32.2251900105       21.1055015611  IM1       184             0.0000000000
      8106       424  IM1       DN2             3.1910606591      -32.2148196596       21.1003482983  IM1       184             0.0000000000
      8107       424  IM1       H7              3.1748063140      -31.2260313500       21.0714055412  IM1       184             0.0000000000
      8108       424  IM1       LPN21           3.1601629963      -31.9275793098       21.1003500727  IM1       184             0.0000000000
      8109       425  IM1       C1              4.1820239016      -25.3541925513       29.4394222448  IM1       185             0.0000000000
      8110       425  IM1       DC1             4.2024810143      -25.3665435524       29.4363906473  IM1       185             0.0000000000
      8111       425  IM1       H1              4.5616575160      -24.9836667974       30.4155933286  IM1       185             0.0000000000
      8112       425  IM1       H2              3.0801383540      -25.2121783873       29.4383190074  IM1       185             0.0000000000
      8113       425  IM1       H3              4.6457072032      -24.7908055996       28.6016192012  IM1       185             0.0000000000
      8114       425  IM1       N1              4.4717624653      -26.7491864613       29.3026935939  IM1       185             0.0000000000
      8115       425  IM1       DN1             4.4838020482      -26.7749704854       29.2909428227  IM1       185             0.0000000000
      8116       425  IM1       C2              5.1579369541      -27.5270559563       30.2094785752  IM1       185             0.0000000000
      8117       425  IM1       DC2             5.1710247147      -27.5443792023       30.1869972343  IM1       185             0.0000000000
      8118       425  IM1       H4              5.4914408938      -27.1016842714       31.1479470360  IM1       185             0.0000000000
      8119       425  IM1       C3              5.1729026449      -28.8017627383       29.6929535450  IM1       185             0.0000000000
      8120       425  IM1       DC3             5.1791018628      -28.8261234594       29.6794703972  IM1       185             0.0000000000
      8121       425  IM1       H5              5.6525733746      -29.6821432158       30.1025084324  IM1       185             0.0000000000
      8122       425  IM1       C4              4.1274971283      -27.5735219658       28.2732287888  IM1       185             0.0000000000
      8123       425  IM1       DC4             4.1259093006      -27.5872008960       28.2677156430  IM1       185             0.0000000000
      8124       425  IM1       H6              3.6156971019      -27.2010439456       27.3858614142  IM1       185             0.0000000000
      8125       425  IM1       N2              4.5073534025      -28.8298761119       28.4953140206  IM1       185             0.0000000000
      8126       425  IM1       DN2             4.5016056363      -28.8421152856       28.4890324218  IM1       185             0.0000000000
      8127       425  IM1       H7              4.4458450034      -29.5964181384       27.8560722523  IM1       185             0.0000000000
      8128       425  IM1       LPN21           4.4550048253      -29.0650892770       28.3166120525  IM1       185             0.0000000000
      8129       426  IM1       C1             32.9527337210      -18.1602827464       13.9548539813  IM1       186             0.0000000000
      8130       426  IM1       DC1            32.9527670236      -18.1530877998       13.9675569359  IM1       186             0.0000000000
      8131       426  IM1       H1             33.6152618547      -18.7019165675       14.6633808172  IM1       186             0.0000000000
      8132       426  IM1       H2             32.5272234760      -17.2623746507       14.4518681496  IM1       186             0.0000000000
      8133       426  IM1       H3             33.5391287046      -17.8497777638       13.0637599464  IM1       186             0.0000000000
      8134       426  IM1       N1             31.8937805949      -19.0357847692       13.5345392719  IM1       186             0.0000000000
      8135       426  IM1       DN1            31.8855304983      -19.0225322707       13.5302865296  IM1       186             0.0000000000
      8136       426  IM1       C2             31.5934880171      -20.2647775287       14.0760431014  IM1       186             0.0000000000
      8137       426  IM1       DC2            31.5934048825      -20.2414705781       14.0723982342  IM1       186             0.0000000000
      8138       426  IM1       H4             32.2218237726      -20.7183822263       14.8325653791  IM1       186             0.0000000000
      8139       426  IM1       C3             30.4750101780      -20.7201209524       13.4089750187  IM1       186             0.0000000000
      8140       426  IM1       DC3            30.4709359839      -20.7093627731       13.4068250210  IM1       186             0.0000000000
      8141       426  IM1       H5             29.9421176585      -21.6521326761       13.5513432371  IM1       186             0.0000000000
      8142       426  IM1       C4             30.9503434430      -18.7984718629       12.5784626159  IM1       186             0.0000000000
      8143       426  IM1       DC4            30.9491234460      -18.7969774215       12.5777266564  IM1       186             0.0000000000
      8144       426  IM1       H6             30.9316108223      -17.8762069018       11.9977936652  IM1       186             0.0000000000
      8145       426  IM1       N2             30.0736457272      -19.7904752456       12.4858389255  IM1       186             0.0000000000
      8146       426  IM1       DN2            30.0677084211      -19.7853585241       12.4781645299  IM1       186             0.0000000000
      8147       426  IM1       H7             29.2852769044      -19.8451106620       11.8730668875  IM1       186             0.0000000000
      8148       426  IM1       LPN21          29.8389706937      -19.8018788941       12.2992978162  IM1       186             0.0000000000
      8149       427  IM1       C1            -11.9658140529       -8.3830716346       -2.7055228937  IM1       187             0.0000000000
      8150       427  IM1       DC1           -11.9847804808       -8.4055082738       -2.7153296011  IM1       187             0.0000000000
      8151       427  IM1       H1            -13.0110484580       -8.4180064003       -3.0804703581  IM1       187             0.0000000000
      8152       427  IM1       H2            -11.8078923483       -9.1567088820       -1.9239429907  IM1       187             0.0000000000
      8153       427  IM1       H3            -11.2582501982       -8.5229405630       -3.5505738245  IM1       187             0.0000000000
      8154       427  IM1       N1            -11.7170827419       -7.1045036387       -2.1324624395  IM1       187             0.0000000000
      8155       427  IM1       DN1           -11.7186366126       -7.1301292735       -2.1370029855  IM1       187             0.0000000000
      8156       427  IM1       C2            -12.6153004592       -6.0649381756       -2.0316479402  IM1       187             0.0000000000
      8157       427  IM1       DC2           -12.6171659936       -6.1029565967       -2.0465856604  IM1       187             0.0000000000
      8158       427  IM1       H4            -13.6393813442       -6.1319799207       -2.3775565196  IM1       187             0.0000000000
      8159       427  IM1       C3            -11.9172972520       -5.0081300844       -1.4946839368  IM1       187             0.0000000000
      8160       427  IM1       DC3           -11.9258624792       -5.0336200909       -1.4992670340  IM1       187             0.0000000000
      8161       427  IM1       H5            -12.2873398336       -4.0194419796       -1.2529127243  IM1       187             0.0000000000
      8162       427  IM1       C4            -10.5319295541       -6.6488240980       -1.6454880437  IM1       187             0.0000000000
      8163       427  IM1       DC4           -10.5510897169       -6.6570508984       -1.6536664749  IM1       187             0.0000000000
      8164       427  IM1       H6             -9.6419000139       -7.2743296381       -1.5770027398  IM1       187             0.0000000000
      8165       427  IM1       N2            -10.6234949528       -5.3858247025       -1.2592640715  IM1       187             0.0000000000
      8166       427  IM1       DN2           -10.6289472918       -5.3908108434       -1.2612386983  IM1       187             0.0000000000
      8167       427  IM1       H7             -9.9028562728       -4.8391370684       -0.8328692737  IM1       187             0.0000000000
      8168       427  IM1       LPN21         -10.4004510174       -5.2216440787       -1.1439552442  IM1       187             0.0000000000
      8169       428  IM1       C1            -34.5979195197      -13.1714113808       24.4778787623  IM1       188             0.0000000000
      8170       428  IM1       DC1           -34.5940956168      -13.1805770088       24.4798617254  IM1       188             0.0000000000
      8171       428  IM1       H1            -33.6570440429      -13.7620617775       24.4922470618  IM1       188             0.0000000000
      8172       428  IM1       H2            -34.5634872859      -12.4335455450       23.6480056213  IM1       188             0.0000000000
      8173       428  IM1       H3            -35.4603244725      -13.8600949121       24.3502320185  IM1       188             0.0000000000
      8174       428  IM1       N1            -34.7454704902      -12.4726577394       25.7178977591  IM1       188             0.0000000000
      8175       428  IM1       DN1           -34.7458034786      -12.4697698560       25.7153967941  IM1       188             0.0000000000
      8176       428  IM1       C2            -33.8485019113      -12.4693720669       26.7639967542  IM1       188             0.0000000000
      8177       428  IM1       DC2           -33.8539799993      -12.4780900450       26.7507510362  IM1       188             0.0000000000
      8178       428  IM1       H4            -32.8857015273      -12.9606254005       26.6963610917  IM1       188             0.0000000000
      8179       428  IM1       C3            -34.4610586285      -11.7884821396       27.7965414453  IM1       188             0.0000000000
      8180       428  IM1       DC3           -34.4631196240      -11.7905242820       27.7932469033  IM1       188             0.0000000000
      8181       428  IM1       H5            -34.0693040631      -11.5696148263       28.7821957767  IM1       188             0.0000000000
      8182       428  IM1       C4            -35.8428052663      -11.7882391573       26.1465018128  IM1       188             0.0000000000
      8183       428  IM1       DC4           -35.8347769747      -11.7931064658       26.1435046140  IM1       188             0.0000000000
      8184       428  IM1       H6            -36.7091582541      -11.6187633937       25.5071189336  IM1       188             0.0000000000
      8185       428  IM1       N2            -35.6981721695      -11.3643856535       27.3986812746  IM1       188             0.0000000000
      8186       428  IM1       DN2           -35.6965813758      -11.3644601750       27.4006086689  IM1       188             0.0000000000
      8187       428  IM1       H7            -36.3477969791      -10.8117614152       27.9207866833  IM1       188             0.0000000000
      8188       428  IM1       LPN21         -35.8998259537      -11.2078942246       27.5563079982  IM1       188             0.0000000000
      8189       429  IM1       C1            -36.4931915688      -23.2140184035      -28.4685075302  IM1       189             0.0000000000
      8190       429  IM1       DC1           -36.4913629237      -23.2207040512      -28.4707315019  IM1       189             0.0000000000
      8191       429  IM1       H1            -35.9152559318      -24.1174342705      -28.1784193186  IM1       189             0.0000000000
      8192       429  IM1       H2            -36.8903016531      -23.3329750288      -29.4992712773  IM1       189             0.0000000000
      8193       429  IM1       H3            -37.3215154632      -23.0533035387      -27.7457549748  IM1       189             0.0000000000
      8194       429  IM1       N1            -35.6303707525      -22.0791584981      -28.4411602756  IM1       189             0.0000000000
      8195       429  IM1       DN1           -35.6388813208      -22.0789701713      -28.4409381916  IM1       189             0.0000000000
      8196       429  IM1       C2            -34.2929301221      -22.0811077345      -28.1156803027  IM1       189             0.0000000000
      8197       429  IM1       DC2           -34.3134495467      -22.0845229379      -28.1236970630  IM1       189             0.0000000000
      8198       429  IM1       H4            -33.7723984251      -22.9845814817      -27.8229843147  IM1       189             0.0000000000
      8199       429  IM1       C3            -33.8725684427      -20.7737766468      -28.2276655478  IM1       189             0.0000000000
      8200       429  IM1       DC3           -33.8770268925      -20.7748679391      -28.2279975012  IM1       189             0.0000000000
      8201       429  IM1       H5            -32.8785749291      -20.3780559186      -28.0595257186  IM1       189             0.0000000000
      8202       429  IM1       C4            -35.9610020321      -20.7902817510      -28.7332254509  IM1       189             0.0000000000
      8203       429  IM1       DC4           -35.9607861826      -20.7994245693      -28.7287178303  IM1       189             0.0000000000
      8204       429  IM1       H6            -36.9681476619      -20.4995119202      -29.0319068628  IM1       189             0.0000000000
      8205       429  IM1       N2            -34.9173965529      -19.9784647743      -28.6074366687  IM1       189             0.0000000000
      8206       429  IM1       DN2           -34.9175511871      -19.9784594932      -28.6061226099  IM1       189             0.0000000000
      8207       429  IM1       H7            -34.9054428584      -18.9911550480      -28.7657926418  IM1       189             0.0000000000
      8208       429  IM1       LPN21         -34.9176728896      -19.6821443202      -28.6542780191  IM1       189             0.0000000000
      8209       430  IM1       C1            -11.7014517210        2.9001557480        9.0753925540  IM1       190             0.0000000000
      8210       430  IM1       DC1           -11.6694216178        2.9016580962        9.0676297432  IM1       190             0.0000000000
      8211       430  IM1       H1            -11.0363499070        2.0396469373        9.3022959780  IM1       190             0.0000000000
      8212       430  IM1       H2            -11.5740979374        3.6982361062        9.8377374616  IM1       190             0.0000000000
      8213       430  IM1       H3            -11.4903804779        3.2924885332        8.0576278873  IM1       190             0.0000000000
      8214       430  IM1       N1            -13.0470656548        2.4555375890        9.1223613205  IM1       190             0.0000000000
      8215       430  IM1       DN1           -13.0198588199        2.4742858977        9.1123507664  IM1       190             0.0000000000
      8216       430  IM1       C2            -13.4619523833        1.1791328500        9.3943030551  IM1       190             0.0000000000
      8217       430  IM1       DC2           -13.4572866691        1.2228064447        9.3674334243  IM1       190             0.0000000000
      8218       430  IM1       H4            -12.7768744114        0.3998136738        9.7044945993  IM1       190             0.0000000000
      8219       430  IM1       C3            -14.8391331404        1.2055561388        9.3648186088  IM1       190             0.0000000000
      8220       430  IM1       DC3           -14.8462317058        1.2064917674        9.3328603700  IM1       190             0.0000000000
      8221       430  IM1       H5            -15.5239901782        0.4111584250        9.6346187386  IM1       190             0.0000000000
      8222       430  IM1       C4            -14.1722861708        3.1853605103        8.8875654912  IM1       190             0.0000000000
      8223       430  IM1       DC4           -14.1586295900        3.1674373338        8.8845873522  IM1       190             0.0000000000
      8224       430  IM1       H6            -14.1301226445        4.2559609684        8.6872235428  IM1       190             0.0000000000
      8225       430  IM1       N2            -15.2733519285        2.4442978417        8.9893669682  IM1       190             0.0000000000
      8226       430  IM1       DN2           -15.2815794345        2.4419233994        8.9784217874  IM1       190             0.0000000000
      8227       430  IM1       H7            -16.2156036452        2.7773035960        8.9537457686  IM1       190             0.0000000000
      8228       430  IM1       LPN21         -15.5546990818        2.5355532310        8.9392048985  IM1       190             0.0000000000
      8229       431  IM1       C1            -10.9568537343        2.4388164468      -28.0971802114  IM1       191             0.0000000000
      8230       431  IM1       DC1           -10.9549322550        2.4205341123      -28.0932859957  IM1       191             0.0000000000
      8231       431  IM1       H1            -10.5357574936        1.4169429211      -28.2101999243  IM1       191             0.0000000000
      8232       431  IM1       H2            -11.6372719139        2.6787739480      -28.9420307893  IM1       191             0.0000000000
      8233       431  IM1       H3            -11.4917332529        2.5229061690      -27.1270493856  IM1       191             0.0000000000
      8234       431  IM1       N1             -9.8934705257        3.3595021406      -28.1210849878  IM1       191             0.0000000000
      8235       431  IM1       DN1            -9.8988311599        3.3509652999      -28.1176941660  IM1       191             0.0000000000
      8236       431  IM1       C2             -8.5574582406        3.0570100615      -28.2675722270  IM1       191             0.0000000000
      8237       431  IM1       DC2            -8.5752653098        3.0465359962      -28.2620979636  IM1       191             0.0000000000
      8238       431  IM1       H4             -8.2062088031        2.0471261837      -28.4397563899  IM1       191             0.0000000000
      8239       431  IM1       C3             -7.8891807714        4.2450535745      -28.1069805122  IM1       191             0.0000000000
      8240       431  IM1       DC3            -7.8835929967        4.2296753989      -28.1024214039  IM1       191             0.0000000000
      8241       431  IM1       H5             -6.8230459876        4.4333664472      -28.1349784560  IM1       191             0.0000000000
      8242       431  IM1       C4             -9.9843760103        4.6953685215      -27.9069976407  IM1       191             0.0000000000
      8243       431  IM1       DC4            -9.9830727731        4.6714908781      -27.9107818727  IM1       191             0.0000000000
      8244       431  IM1       H6            -10.9337410038        5.2137832122      -27.7726387271  IM1       191             0.0000000000
      8245       431  IM1       N2             -8.7835077888        5.2472981884      -27.8917842752  IM1       191             0.0000000000
      8246       431  IM1       DN2            -8.7797204194        5.2276140323      -27.8967889627  IM1       191             0.0000000000
      8247       431  IM1       H7             -8.5835378761        6.2194790451      -27.7698153616  IM1       191             0.0000000000
      8248       431  IM1       LPN21          -8.7261108075        5.5385723239      -27.8485990395  IM1       191             0.0000000000
      8249       432  IM1       C1            -20.7946418762       18.7397172151       -2.1477157914  IM1       192             0.0000000000
      8250       432  IM1       DC1           -20.8090002168       18.7305178460       -2.1423877470  IM1       192             0.0000000000
      8251       432  IM1       H1            -20.4758147221       17.6789250523       -2.2336822606  IM1       192             0.0000000000
      8252       432  IM1       H2            -21.3427852494       18.9000947696       -1.1947525800  IM1       192             0.0000000000
      8253       432  IM1       H3            -19.9035826945       19.4031064000       -2.1635058414  IM1       192             0.0000000000
      8254       432  IM1       N1            -21.6188670554       19.0774704803       -3.2556376114  IM1       192             0.0000000000
      8255       432  IM1       DN1           -21.6227626657       19.0815348986       -3.2430586585  IM1       192             0.0000000000
      8256       432  IM1       C2            -21.9987773448       18.2265625802       -4.2672893264  IM1       192             0.0000000000
      8257       432  IM1       DC2           -22.0038754893       18.2412537932       -4.2444830636  IM1       192             0.0000000000
      8258       432  IM1       H4            -21.6854605355       17.1901035619       -4.2890673026  IM1       192             0.0000000000
      8259       432  IM1       C3            -22.6879925116       18.9946982636       -5.1795331785  IM1       192             0.0000000000
      8260       432  IM1       DC3           -22.7059489449       18.9892798230       -5.1715268362  IM1       192             0.0000000000
      8261       432  IM1       H5            -23.1373504785       18.6879836775       -6.1159586055  IM1       192             0.0000000000
      8262       432  IM1       C4            -22.1065646872       20.3063587216       -3.5771636063  IM1       192             0.0000000000
      8263       432  IM1       DC4           -22.1030102420       20.2909865683       -3.5713305932  IM1       192             0.0000000000
      8264       432  IM1       H6            -21.9323428048       21.1874407729       -2.9595543814  IM1       192             0.0000000000
      8265       432  IM1       N2            -22.7862460106       20.2714635154       -4.7176655648  IM1       192             0.0000000000
      8266       432  IM1       DN2           -22.7871571269       20.2595557570       -4.7137822666  IM1       192             0.0000000000
      8267       432  IM1       H7            -23.2229258411       21.0483461186       -5.1712778973  IM1       192             0.0000000000
      8268       432  IM1       LPN21         -22.9307463355       20.5021937010       -4.8436942819  IM1       192             0.0000000000
      8269       433  IM1       C1             18.4113591469       32.0541067135      -13.1755944967  IM1       193             0.0000000000
      8270       433  IM1       DC1            18.4021625791       32.0797300184      -13.1703664186  IM1       193             0.0000000000
      8271       433  IM1       H1             18.9278465563       32.7537089646      -12.4841334016  IM1       193             0.0000000000
      8272       433  IM1       H2             18.1966144674       32.5509671187      -14.1458189361  IM1       193             0.0000000000
      8273       433  IM1       H3             19.0506406052       31.1597009310      -13.3358396651  IM1       193             0.0000000000
      8274       433  IM1       N1             17.1930058120       31.6149155516      -12.6000857324  IM1       193             0.0000000000
      8275       433  IM1       DN1            17.1909003444       31.6294750825      -12.6007284007  IM1       193             0.0000000000
      8276       433  IM1       C2             16.6588550597       32.0465961149      -11.4066579640  IM1       193             0.0000000000
      8277       433  IM1       DC2            16.6702618394       32.0702392687      -11.4168958064  IM1       193             0.0000000000
      8278       433  IM1       H4             17.2046859908       32.7105686747      -10.7477967993  IM1       193             0.0000000000
      8279       433  IM1       C3             15.4687516794       31.3690620603      -11.2530436540  IM1       193             0.0000000000
      8280       433  IM1       DC3            15.4779640667       31.3848255258      -11.2551817459  IM1       193             0.0000000000
      8281       433  IM1       H5             14.7620444005       31.4029973128      -10.4331032778  IM1       193             0.0000000000
      8282       433  IM1       C4             16.3119743203       30.7253578681      -13.1272512485  IM1       193             0.0000000000
      8283       433  IM1       DC4            16.3205919656       30.7542750556      -13.1187688497  IM1       193             0.0000000000
      8284       433  IM1       H6             16.4712946667       30.2312429362      -14.0856704998  IM1       193             0.0000000000
      8285       433  IM1       N2             15.2549268013       30.5772846222      -12.3345930786  IM1       193             0.0000000000
      8286       433  IM1       DN2            15.2577559800       30.5892252623      -12.3218602429  IM1       193             0.0000000000
      8287       433  IM1       H7             14.4697579274       29.9833772778      -12.5100465077  IM1       193             0.0000000000
      8288       433  IM1       LPN21          15.0176721060       30.4017963970      -12.3885754124  IM1       193             0.0000000000
      8289       434  IM1       C1             -5.0520562367       10.0546762232        0.0261320385  IM1       194             0.0000000000
      8290       434  IM1       DC1            -5.0445628060       10.0632778538        0.0526993517  IM1       194             0.0000000000
      8291       434  IM1       H1             -4.3510808276        9.1947586716        0.0852613903  IM1       194             0.0000000000
      8292       434  IM1       H2             -4.9714424730       10.6997839167        0.9270529492  IM1       194             0.0000000000
      8293       434  IM1       H3             -4.8261850792       10.6278902949       -0.8983834284  IM1       194             0.0000000000
      8294       434  IM1       N1             -6.3866319350        9.5679897382       -0.0748249342  IM1       194             0.0000000000
      8295       434  IM1       DN1            -6.3864033985        9.5803036080       -0.0596127626  IM1       194             0.0000000000
      8296       434  IM1       C2             -6.8193838060        8.2746572330        0.1306347881  IM1       194             0.0000000000
      8297       434  IM1       DC2            -6.8117371069        8.2910218711        0.1536897629  IM1       194             0.0000000000
      8298       434  IM1       H4             -6.1194058281        7.4492227587        0.1703558020  IM1       194             0.0000000000
      8299       434  IM1       C3             -8.1773090146        8.2890537494       -0.1200459884  IM1       194             0.0000000000
      8300       434  IM1       DC3            -8.1855072970        8.3000280703       -0.1030676422  IM1       194             0.0000000000
      8301       434  IM1       H5             -8.8604465743        7.4491796313       -0.1487433811  IM1       194             0.0000000000
      8302       434  IM1       C4             -7.4880760714       10.3068758518       -0.3786007251  IM1       194             0.0000000000
      8303       434  IM1       DC4            -7.4846199133       10.3072347706       -0.3680447287  IM1       194             0.0000000000
      8304       434  IM1       H6             -7.4375278852       11.3868123661       -0.5174603876  IM1       194             0.0000000000
      8305       434  IM1       N2             -8.5948272696        9.5709390194       -0.3717432019  IM1       194             0.0000000000
      8306       434  IM1       DN2            -8.6068972904        9.5784489977       -0.3594836994  IM1       194             0.0000000000
      8307       434  IM1       H7             -9.5241792740        9.8875898351       -0.5615776369  IM1       194             0.0000000000
      8308       434  IM1       LPN21          -8.8740644839        9.6710088047       -0.4166053929  IM1       194             0.0000000000
      8309       435  IM1       C1            -14.2245919419      -14.9992495153      -36.5788095824  IM1       195             0.0000000000
      8310       435  IM1       DC1           -14.2261539605      -14.9997064362      -36.5703708535  IM1       195             0.0000000000
      8311       435  IM1       H1            -15.2742194804      -15.0792325453      -36.2235551017  IM1       195             0.0000000000
      8312       435  IM1       H2            -14.1656771647      -14.4300255251      -37.5310879545  IM1       195             0.0000000000
      8313       435  IM1       H3            -13.6090117959      -14.5004319717      -35.7999879443  IM1       195             0.0000000000
      8314       435  IM1       N1            -13.7140455474      -16.2968982701      -36.8114168001  IM1       195             0.0000000000
      8315       435  IM1       DN1           -13.7082734305      -16.2927497647      -36.8086726866  IM1       195             0.0000000000
      8316       435  IM1       C2            -14.3276598753      -17.5141916099      -36.6027812379  IM1       195             0.0000000000
      8317       435  IM1       DC2           -14.3136351157      -17.4981977040      -36.5963320555  IM1       195             0.0000000000
      8318       435  IM1       H4            -15.3816547077      -17.5925806761      -36.3664783658  IM1       195             0.0000000000
      8319       435  IM1       C3            -13.3600956898      -18.4732158095      -36.8093963075  IM1       195             0.0000000000
      8320       435  IM1       DC3           -13.3512071897      -18.4728318782      -36.8018773434  IM1       195             0.0000000000
      8321       435  IM1       H5            -13.4339694488      -19.5530909635      -36.7733225012  IM1       195             0.0000000000
      8322       435  IM1       C4            -12.4202852064      -16.5588614783      -37.0975008782  IM1       195             0.0000000000
      8323       435  IM1       DC4           -12.4277379085      -16.5566518768      -37.0942300178  IM1       195             0.0000000000
      8324       435  IM1       H6            -11.6950551392      -15.7627588976      -37.2659111827  IM1       195             0.0000000000
      8325       435  IM1       N2            -12.1787237564      -17.8642615413      -37.0807599408  IM1       195             0.0000000000
      8326       435  IM1       DN2           -12.1760444306      -17.8648992487      -37.0836358591  IM1       195             0.0000000000
      8327       435  IM1       H7            -11.2991912081      -18.2942396155      -37.2845768986  IM1       195             0.0000000000
      8328       435  IM1       LPN21         -11.9126599383      -17.9944270202      -37.1283728887  IM1       195             0.0000000000
      8329       436  IM1       C1            -36.3635715669       11.3089284515       15.1841115755  IM1       196             0.0000000000
      8330       436  IM1       DC1           -36.3641898730       11.3131901399       15.2054737962  IM1       196             0.0000000000
      8331       436  IM1       H1            -35.7356755401       10.7464150557       14.4604775096  IM1       196             0.0000000000
      8332       436  IM1       H2            -36.6105600171       12.3140769533       14.7803861796  IM1       196             0.0000000000
      8333       436  IM1       H3            -37.3051312232       10.7546664766       15.3855565480  IM1       196             0.0000000000
      8334       436  IM1       N1            -35.6148237629       11.4495493475       16.3869664296  IM1       196             0.0000000000
      8335       436  IM1       DN1           -35.6318437549       11.4635610196       16.4107156645  IM1       196             0.0000000000
      8336       436  IM1       C2            -34.4204390812       10.9619746783       16.8395472990  IM1       196             0.0000000000
      8337       436  IM1       DC2           -34.4488976658       10.9770959543       16.8435359412  IM1       196             0.0000000000
      8338       436  IM1       H4            -33.7660321133       10.4013845659       16.1835143377  IM1       196             0.0000000000
      8339       436  IM1       C3            -34.3251958447       11.3703888923       18.1603103292  IM1       196             0.0000000000
      8340       436  IM1       DC3           -34.3383471378       11.3792182443       18.1688258707  IM1       196             0.0000000000
      8341       436  IM1       H5            -33.5281973396       11.1834443559       18.8693477916  IM1       196             0.0000000000
      8342       436  IM1       C4            -36.1533604760       12.0894902270       17.4198092150  IM1       196             0.0000000000
      8343       436  IM1       DC4           -36.1890756998       12.0907006024       17.4288031505  IM1       196             0.0000000000
      8344       436  IM1       H6            -37.1397756231       12.4732685190       17.1594260739  IM1       196             0.0000000000
      8345       436  IM1       N2            -35.4460123510       12.0653476241       18.5235130865  IM1       196             0.0000000000
      8346       436  IM1       DN2           -35.4635007553       12.0676962420       18.5251041849  IM1       196             0.0000000000
      8347       436  IM1       H7            -35.6711777397       12.4824979698       19.4040164301  IM1       196             0.0000000000
      8348       436  IM1       LPN21         -35.5205489642       12.1862206546       18.7877743280  IM1       196             0.0000000000
      8349       437  IM1       C1              3.5681484920       11.7797898970       28.9567077808  IM1       197             0.0000000000
      8350       437  IM1       DC1             3.5643059640       11.8013757354       28.9695082738  IM1       197             0.0000000000
      8351       437  IM1       H1              2.5691838802       11.3033891572       28.8595839422  IM1       197             0.0000000000
      8352       437  IM1       H2              4.1086428850       11.3434709444       29.8237790482  IM1       197             0.0000000000
      8353       437  IM1       H3              4.1363798303       11.6038846651       28.0183626965  IM1       197             0.0000000000
      8354       437  IM1       N1              3.4186266057       13.1880199550       29.1616881420  IM1       197             0.0000000000
      8355       437  IM1       DN1             3.4150309861       13.2094500260       29.1676107943  IM1       197             0.0000000000
      8356       437  IM1       C2              2.2301906860       13.8707603314       29.3101224352  IM1       197             0.0000000000
      8357       437  IM1       DC2             2.2323577999       13.8775059090       29.3175295860  IM1       197             0.0000000000
      8358       437  IM1       H4              1.2797248649       13.3633196182       29.2005430324  IM1       197             0.0000000000
      8359       437  IM1       C3              2.5711647431       15.1907760136       29.5104312409  IM1       197             0.0000000000
      8360       437  IM1       DC3             2.5719631366       15.2097347675       29.5250911364  IM1       197             0.0000000000
      8361       437  IM1       H5              1.9101372727       16.0429189115       29.6093461781  IM1       197             0.0000000000
      8362       437  IM1       C4              4.4151475181       14.1105388992       29.2909176008  IM1       197             0.0000000000
      8363       437  IM1       DC4             4.4108452372       14.1133253669       29.2938527138  IM1       197             0.0000000000
      8364       437  IM1       H6              5.4669590130       13.8379583956       29.2043586726  IM1       197             0.0000000000
      8365       437  IM1       N2              3.9320888291       15.3321705905       29.5146461180  IM1       197             0.0000000000
      8366       437  IM1       DN2             3.9350038083       15.3442576206       29.5208170626  IM1       197             0.0000000000
      8367       437  IM1       H7              4.4587566421       16.1785422599       29.5938674026  IM1       197             0.0000000000
      8368       437  IM1       LPN21           4.0929921100       15.5819024932       29.5564086724  IM1       197             0.0000000000
      8369       438  IM1       C1             12.7170577313       14.7370844647       18.3561575211  IM1       198             0.0000000000
      8370       438  IM1       DC1            12.7140093745       14.7236281955       18.3480036487  IM1       198             0.0000000000
      8371       438  IM1       H1             12.6697020892       13.6495932823       18.1338033599  IM1       198             0.0000000000
      8372       438  IM1       H2             13.7748847457       15.0760277712       18.3351707845  IM1       198             0.0000000000
      8373       438  IM1       H3             12.1029492278       15.3031097760       17.6234863173  IM1       198             0.0000000000
      8374       438  IM1       N1             12.2087709223       14.9648209331       19.6628659031  IM1       198             0.0000000000
      8375       438  IM1       DN1            12.2136204277       14.9806674559       19.6534845754  IM1       198             0.0000000000
      8376       438  IM1       C2             11.8403674599       13.9926793343       20.5605075167  IM1       198             0.0000000000
      8377       438  IM1       DC2            11.8545873556       14.0152055211       20.5394423356  IM1       198             0.0000000000
      8378       438  IM1       H4             11.7974377160       12.9429394883       20.2976533884  IM1       198             0.0000000000
      8379       438  IM1       C3             11.5138783410       14.6494098673       21.7262947958  IM1       198             0.0000000000
      8380       438  IM1       DC3            11.5175240809       14.6645632625       21.7172978278  IM1       198             0.0000000000
      8381       438  IM1       H5             11.1482062389       14.2223834505       22.6519412473  IM1       198             0.0000000000
      8382       438  IM1       C4             12.0949051956       16.1582210695       20.3088250804  IM1       198             0.0000000000
      8383       438  IM1       DC4            12.0999642002       16.1551545213       20.3059717810  IM1       198             0.0000000000
      8384       438  IM1       H6             12.3503030121       17.1074090597       19.8377474705  IM1       198             0.0000000000
      8385       438  IM1       N2             11.6686784421       15.9992471530       21.5555186379  IM1       198             0.0000000000
      8386       438  IM1       DN2            11.6694743639       16.0045997228       21.5565239581  IM1       198             0.0000000000
      8387       438  IM1       H7             11.4856580760       16.7232047836       22.2206418556  IM1       198             0.0000000000
      8388       438  IM1       LPN21          11.6186666562       16.2187688894       21.7537836841  IM1       198             0.0000000000
      8389       439  IM1       C1              8.0914519409       36.7510799503       16.5817798774  IM1       199             0.0000000000
      8390       439  IM1       DC1             8.0890571228       36.7655413058       16.6116713045  IM1       199             0.0000000000
      8391       439  IM1       H1              8.7844489516       36.5451865615       17.4253935664  IM1       199             0.0000000000
      8392       439  IM1       H2              7.1036999437       37.1611486302       16.8826297899  IM1       199             0.0000000000
      8393       439  IM1       H3              8.5073863389       37.4493135582       15.8242909949  IM1       199             0.0000000000
      8394       439  IM1       N1              7.9500354680       35.6435361211       15.7857522806  IM1       199             0.0000000000
      8395       439  IM1       DN1             7.9463520732       35.6661241384       15.8015200587  IM1       199             0.0000000000
      8396       439  IM1       C2              8.2139300195       34.3451059355       16.1029174696  IM1       199             0.0000000000
      8397       439  IM1       DC2             8.2112524402       34.3769168392       16.1182195088  IM1       199             0.0000000000
      8398       439  IM1       H4              8.6106691047       34.0469566772       17.0655150584  IM1       199             0.0000000000
      8399       439  IM1       C3              7.8680964842       33.6334171171       14.9781201691  IM1       199             0.0000000000
      8400       439  IM1       DC3             7.8782978348       33.6466638536       14.9918765078  IM1       199             0.0000000000
      8401       439  IM1       H5              7.8599203197       32.5601291490       14.8336380329  IM1       199             0.0000000000
      8402       439  IM1       C4              7.5210546222       35.6884932060       14.5017112138  IM1       199             0.0000000000
      8403       439  IM1       DC4             7.5228723674       35.6918990787       14.5302130103  IM1       199             0.0000000000
      8404       439  IM1       H6              7.3243364129       36.6261500139       13.9819019633  IM1       199             0.0000000000
      8405       439  IM1       N2              7.4435280431       34.4780482721       13.9989151724  IM1       199             0.0000000000
      8406       439  IM1       DN2             7.4459838117       34.4818929725       14.0121875752  IM1       199             0.0000000000
      8407       439  IM1       H7              7.1617957359       34.2429439209       13.0686717359  IM1       199             0.0000000000
      8408       439  IM1       LPN21           7.3497837269       34.4098050939       13.7222296617  IM1       199             0.0000000000
      8409       440  IM1       C1              7.6043628762       34.7786636594       34.8344188475  IM1       200             0.0000000000
      8410       440  IM1       DC1             7.5859123931       34.7842752680       34.8390765859  IM1       200             0.0000000000
      8411       440  IM1       H1              6.5281433070       34.9575725499       35.0443332336  IM1       200             0.0000000000
      8412       440  IM1       H2              7.8445162383       35.0864353108       33.7942631023  IM1       200             0.0000000000
      8413       440  IM1       H3              8.2318445097       35.3422153952       35.5576043290  IM1       200             0.0000000000
      8414       440  IM1       N1              7.8953430395       33.3889717257       34.9786534010  IM1       200             0.0000000000
      8415       440  IM1       DN1             7.8901812208       33.3936812789       34.9798154309  IM1       200             0.0000000000
      8416       440  IM1       C2              6.9989665641       32.4173535336       35.3536294158  IM1       200             0.0000000000
      8417       440  IM1       DC2             6.9952186614       32.4357132074       35.3576839741  IM1       200             0.0000000000
      8418       440  IM1       H4              5.9668670309       32.6684602723       35.5648282787  IM1       200             0.0000000000
      8419       440  IM1       C3              7.6917905842       31.2259349934       35.3520212031  IM1       200             0.0000000000
      8420       440  IM1       DC3             7.6775841986       31.2311500573       35.3598658616  IM1       200             0.0000000000
      8421       440  IM1       H5              7.3281735784       30.2280494926       35.5639084383  IM1       200             0.0000000000
      8422       440  IM1       C4              9.0874564172       32.7605368595       34.7868725860  IM1       200             0.0000000000
      8423       440  IM1       DC4             9.0677105213       32.7667606407       34.7928449087  IM1       200             0.0000000000
      8424       440  IM1       H6              9.9898084646       33.2954044667       34.4906000334  IM1       200             0.0000000000
      8425       440  IM1       N2              8.9887031106       31.4546635109       35.0177276014  IM1       200             0.0000000000
      8426       440  IM1       DN2             8.9750192208       31.4565465123       35.0259774336  IM1       200             0.0000000000
      8427       440  IM1       H7              9.7178010079       30.7764971408       34.9254961990  IM1       200             0.0000000000
      8428       440  IM1       LPN21           9.2113770339       31.2545476555       34.9984930418  IM1       200             0.0000000000
      8429       441  IM1       C1            -27.0119438724       -1.4660374209      -10.0907403115  IM1       201             0.0000000000
      8430       441  IM1       DC1           -27.0216553633       -1.4804413317      -10.0783440718  IM1       201             0.0000000000
      8431       441  IM1       H1            -27.8590427362       -1.4805121233       -9.3720366181  IM1       201             0.0000000000
      8432       441  IM1       H2            -26.2998021911       -2.2872521654       -9.8609979140  IM1       201             0.0000000000
      8433       441  IM1       H3            -27.3998727493       -1.5704107888      -11.1265677049  IM1       201             0.0000000000
      8434       441  IM1       N1            -26.3246620094       -0.2209956533       -9.9848520531  IM1       201             0.0000000000
      8435       441  IM1       DN1           -26.3253610041       -0.2410528574       -9.9892244789  IM1       201             0.0000000000
      8436       441  IM1       C2            -26.6658631822        0.8249505574       -9.1575630679  IM1       201             0.0000000000
      8437       441  IM1       DC2           -26.6704103291        0.7900032892       -9.1603989403  IM1       201             0.0000000000
      8438       441  IM1       H4            -27.5294879678        0.7919192821       -8.5049144909  IM1       201             0.0000000000
      8439       441  IM1       C3            -25.7502729373        1.8249801029       -9.4071068219  IM1       201             0.0000000000
      8440       441  IM1       DC3           -25.7639114055        1.8065674540       -9.4053507167  IM1       201             0.0000000000
      8441       441  IM1       H5            -25.7018675977        2.8185159058       -8.9788165781  IM1       201             0.0000000000
      8442       441  IM1       C4            -25.2250881444        0.1758792056      -10.6845263734  IM1       201             0.0000000000
      8443       441  IM1       DC4           -25.2398045511        0.1646857937      -10.6757798993  IM1       201             0.0000000000
      8444       441  IM1       H6            -24.7351135791       -0.4535868591      -11.4273570398  IM1       201             0.0000000000
      8445       441  IM1       N2            -24.8570449110        1.4047016883      -10.3500934219  IM1       201             0.0000000000
      8446       441  IM1       DN2           -24.8660972250        1.3984805483      -10.3464289412  IM1       201             0.0000000000
      8447       441  IM1       H7            -24.0821874892        1.9176151392      -10.7195738249  IM1       201             0.0000000000
      8448       441  IM1       LPN21         -24.6230401062        1.5546632396      -10.4630238626  IM1       201             0.0000000000
      8449       442  IM1       C1             20.5383771467      -34.8992202424       11.2421397553  IM1       202             0.0000000000
      8450       442  IM1       DC1            20.5325659527      -34.8774624010       11.2200141902  IM1       202             0.0000000000
      8451       442  IM1       H1             20.5076264217      -33.8802622583       10.8004384761  IM1       202             0.0000000000
      8452       442  IM1       H2             19.7894375463      -34.9889806963       12.0578318147  IM1       202             0.0000000000
      8453       442  IM1       H3             20.3190704811      -35.6393456403       10.4431153605  IM1       202             0.0000000000
      8454       442  IM1       N1             21.8493802440      -35.1465765158       11.7773428754  IM1       202             0.0000000000
      8455       442  IM1       DN1            21.8435971069      -35.1337414137       11.7644979270  IM1       202             0.0000000000
      8456       442  IM1       C2             23.0176413699      -34.5663328052       11.3318658071  IM1       202             0.0000000000
      8457       442  IM1       DC2            23.0037014891      -34.5563433402       11.3194143190  IM1       202             0.0000000000
      8458       442  IM1       H4             23.0244995485      -33.6118979512       10.8201079788  IM1       202             0.0000000000
      8459       442  IM1       C3             24.0468969944      -35.3743763048       11.7753933873  IM1       202             0.0000000000
      8460       442  IM1       DC3            24.0455801502      -35.3686597951       11.7735594462  IM1       202             0.0000000000
      8461       442  IM1       H5             25.1150930468      -35.2474330191       11.6499677289  IM1       202             0.0000000000
      8462       442  IM1       C4             22.2309995050      -36.2557067957       12.4670454893  IM1       202             0.0000000000
      8463       442  IM1       DC4            22.2391815995      -36.2287014170       12.4542345012  IM1       202             0.0000000000
      8464       442  IM1       H6             21.5179399221      -36.9216966580       12.9529503509  IM1       202             0.0000000000
      8465       442  IM1       N2             23.5467336094      -36.4307470676       12.4666692656  IM1       202             0.0000000000
      8466       442  IM1       DN2            23.5587382959      -36.4286761547       12.4652450382  IM1       202             0.0000000000
      8467       442  IM1       H7             24.0327763853      -37.2278392993       12.8250076448  IM1       202             0.0000000000
      8468       442  IM1       LPN21          23.6967378076      -36.6573238051       12.5937980292  IM1       202             0.0000000000
      8469       443  IM1       C1             26.7248570964       23.0656959554       -9.8710523440  IM1       203             0.0000000000
      8470       443  IM1       DC1            26.7275717854       23.0786027419       -9.8672847297  IM1       203             0.0000000000
      8471       443  IM1       H1             27.4270620318       23.8793773052      -10.1523918004  IM1       203             0.0000000000
      8472       443  IM1       H2             25.9769442497       22.9156499906      -10.6787859536  IM1       203             0.0000000000
      8473       443  IM1       H3             27.2896406906       22.1264227162       -9.6891010479  IM1       203             0.0000000000
      8474       443  IM1       N1             26.0331742916       23.4242409374       -8.6768084450  IM1       203             0.0000000000
      8475       443  IM1       DN1            26.0282079327       23.4256662997       -8.6705320071  IM1       203             0.0000000000
      8476       443  IM1       C2             26.1361303754       24.6208144613       -8.0019944147  IM1       203             0.0000000000
      8477       443  IM1       DC2            26.1365187904       24.6106457587       -8.0026743425  IM1       203             0.0000000000
      8478       443  IM1       H4             26.8229012565       25.3951511365       -8.3208007358  IM1       203             0.0000000000
      8479       443  IM1       C3             25.3044350883       24.5186683189       -6.9093582555  IM1       203             0.0000000000
      8480       443  IM1       DC3            25.2987517399       24.5178129027       -6.9070016794  IM1       203             0.0000000000
      8481       443  IM1       H5             25.1553701925       25.2355287089       -6.1113733946  IM1       203             0.0000000000
      8482       443  IM1       C4             25.1394635859       22.6620764891       -7.9874886730  IM1       203             0.0000000000
      8483       443  IM1       DC4            25.1411978004       22.6760383080       -7.9881700731  IM1       203             0.0000000000
      8484       443  IM1       H6             24.8560068743       21.6602561680       -8.3101469084  IM1       203             0.0000000000
      8485       443  IM1       N2             24.6860148794       23.3012282740       -6.9137324947  IM1       203             0.0000000000
      8486       443  IM1       DN2            24.6835243052       23.3043768852       -6.9106614722  IM1       203             0.0000000000
      8487       443  IM1       H7             24.0369036372       22.9498295949       -6.2390669751  IM1       203             0.0000000000
      8488       443  IM1       LPN21          24.4876119873       23.1941441496       -6.7158201841  IM1       203             0.0000000000
      8489       444  IM1       C1             36.5445055590       18.0433890195      -29.2576924860  IM1       204             0.0000000000
      8490       444  IM1       DC1            36.5352425926       18.0422238070      -29.2466924386  IM1       204             0.0000000000
      8491       444  IM1       H1             37.5493372873       17.5700666025      -29.2331957953  IM1       204             0.0000000000
      8492       444  IM1       H2             36.6554042010       19.1318948817      -29.4505071100  IM1       204             0.0000000000
      8493       444  IM1       H3             35.9410868650       17.5792267781      -30.0668650849  IM1       204             0.0000000000
      8494       444  IM1       N1             35.8742615808       17.8504059639      -28.0070437206  IM1       204             0.0000000000
      8495       444  IM1       DN1            35.8616091531       17.8561736917      -28.0001284504  IM1       204             0.0000000000
      8496       444  IM1       C2             36.4234998591       17.2877598837      -26.8784708526  IM1       204             0.0000000000
      8497       444  IM1       DC2            36.4217970437       17.3022020886      -26.8856514184  IM1       204             0.0000000000
      8498       444  IM1       H4             37.4166817260       16.8561715771      -26.8929730167  IM1       204             0.0000000000
      8499       444  IM1       C3             35.4486967664       17.3491010756      -25.9072124492  IM1       204             0.0000000000
      8500       444  IM1       DC3            35.4474611257       17.3613646362      -25.8952824433  IM1       204             0.0000000000
      8501       444  IM1       H5             35.5042422946       17.0005914576      -24.8833253751  IM1       204             0.0000000000
      8502       444  IM1       C4             34.6118562480       18.2416948146      -27.6690633656  IM1       204             0.0000000000
      8503       444  IM1       DC4            34.6089361284       18.2458214643      -27.6728261580  IM1       204             0.0000000000
      8504       444  IM1       H6             33.9388695801       18.7212786994      -28.3798293202  IM1       204             0.0000000000
      8505       444  IM1       N2             34.3316335779       17.9640399247      -26.4000817454  IM1       204             0.0000000000
      8506       444  IM1       DN2            34.3287747086       17.9695954679      -26.3983170970  IM1       204             0.0000000000
      8507       444  IM1       H7             33.4714834659       18.1370123534      -25.9202668605  IM1       204             0.0000000000
      8508       444  IM1       LPN21          34.0750057501       18.0260029269      -26.2575940464  IM1       204             0.0000000000
      8509       445  IM1       C1             24.8556277624      -32.9811713209      -18.1767011683  IM1       205             0.0000000000
      8510       445  IM1       DC1            24.8414355799      -33.0059526018      -18.1679632587  IM1       205             0.0000000000
      8511       445  IM1       H1             25.8300242595      -33.5110655046      -18.2406122169  IM1       205             0.0000000000
      8512       445  IM1       H2             24.8377559180      -32.3556816966      -17.2586792034  IM1       205             0.0000000000
      8513       445  IM1       H3             24.7289448719      -32.3353466304      -19.0717893843  IM1       205             0.0000000000
      8514       445  IM1       N1             23.7790643938      -33.9262696714      -18.1296898433  IM1       205             0.0000000000
      8515       445  IM1       DN1            23.7619495867      -33.9440484963      -18.1220736649  IM1       205             0.0000000000
      8516       445  IM1       C2             23.8834675251      -35.3009480335      -18.1356949286  IM1       205             0.0000000000
      8517       445  IM1       DC2            23.8824501597      -35.3065221900      -18.1344671097  IM1       205             0.0000000000
      8518       445  IM1       H4             24.8514612687      -35.7826795299      -18.1974353521  IM1       205             0.0000000000
      8519       445  IM1       C3             22.5941554266      -35.7872395391      -18.0750656786  IM1       205             0.0000000000
      8520       445  IM1       DC3            22.5825424567      -35.7906745375      -18.0716348016  IM1       205             0.0000000000
      8521       445  IM1       H5             22.2646848922      -36.8189033095      -18.0722316328  IM1       205             0.0000000000
      8522       445  IM1       C4             22.4480808228      -33.6460352572      -18.0584662957  IM1       205             0.0000000000
      8523       445  IM1       DC4            22.4458956735      -33.6509084559      -18.0486860598  IM1       205             0.0000000000
      8524       445  IM1       H6             22.0729763107      -32.6226302090      -18.0646882000  IM1       205             0.0000000000
      8525       445  IM1       N2             21.7061512331      -34.7504128626      -18.0144315362  IM1       205             0.0000000000
      8526       445  IM1       DN2            21.6934152037      -34.7537266440      -18.0105766757  IM1       205             0.0000000000
      8527       445  IM1       H7             20.7081065831      -34.7995775905      -17.9758348130  IM1       205             0.0000000000
      8528       445  IM1       LPN21          21.4070214775      -34.7627575837      -17.9952222374  IM1       205             0.0000000000
      8529       446  IM1       C1             19.7262742231       22.7382388912      -21.1859820552  IM1       206             0.0000000000
      8530       446  IM1       DC1            19.7262535738       22.7328487980      -21.1814394277  IM1       206             0.0000000000
      8531       446  IM1       H1             19.8851099720       21.6993044401      -21.5461312067  IM1       206             0.0000000000
      8532       446  IM1       H2             20.0189725884       23.4571893342      -21.9808146977  IM1       206             0.0000000000
      8533       446  IM1       H3             18.6588772301       22.8803812244      -20.9125223428  IM1       206             0.0000000000
      8534       446  IM1       N1             20.5339961100       22.9747433714      -20.0328146501  IM1       206             0.0000000000
      8535       446  IM1       DN1            20.5283458358       22.9791386437      -20.0305035196  IM1       206             0.0000000000
      8536       446  IM1       C2             21.4490184488       22.1065171372      -19.4784355234  IM1       206             0.0000000000
      8537       446  IM1       DC2            21.4318770607       22.1089205465      -19.4926347679  IM1       206             0.0000000000
      8538       446  IM1       H4             21.5898983898       21.1021123736      -19.8581892766  IM1       206             0.0000000000
      8539       446  IM1       C3             22.0199349120       22.7797298814      -18.4180045125  IM1       206             0.0000000000
      8540       446  IM1       DC3            22.0040518227       22.7688702263      -18.4216456560  IM1       206             0.0000000000
      8541       446  IM1       H5             22.7890658411       22.4369861475      -17.7369367135  IM1       206             0.0000000000
      8542       446  IM1       C4             20.5756530428       24.1131355625      -19.2872819656  IM1       206             0.0000000000
      8543       446  IM1       DC4            20.5689882575       24.1053263700      -19.2929531190  IM1       206             0.0000000000
      8544       446  IM1       H6             19.9679777060       24.9888047861      -19.5153917987  IM1       206             0.0000000000
      8545       446  IM1       N2             21.4315155840       24.0054116568      -18.2811469655  IM1       206             0.0000000000
      8546       446  IM1       DN2            21.4208168243       23.9958618768      -18.2808617564  IM1       206             0.0000000000
      8547       446  IM1       H7             21.6495151407       24.7074674752      -17.6032134720  IM1       206             0.0000000000
      8548       446  IM1       LPN21          21.4809746995       24.2123387531      -18.0696405289  IM1       206             0.0000000000
      8549       447  IM1       C1            -21.8265773098      -13.2206469033       32.7765652401  IM1       207             0.0000000000
      8550       447  IM1       DC1           -21.8229728706      -13.2319716798       32.7810432952  IM1       207             0.0000000000
      8551       447  IM1       H1            -20.8556464645      -13.7573743737       32.7170848666  IM1       207             0.0000000000
      8552       447  IM1       H2            -22.4705937409      -13.5161801041       31.9208643782  IM1       207             0.0000000000
      8553       447  IM1       H3            -22.3284138960      -13.4526401261       33.7402354030  IM1       207             0.0000000000
      8554       447  IM1       N1            -21.5970844728      -11.8124925105       32.7069929695  IM1       207             0.0000000000
      8555       447  IM1       DN1           -21.6101510762      -11.8217154094       32.7118017044  IM1       207             0.0000000000
      8556       447  IM1       C2            -20.3779757472      -11.1826848728       32.5961308359  IM1       207             0.0000000000
      8557       447  IM1       DC2           -20.3944261945      -11.2087716061       32.6028081853  IM1       207             0.0000000000
      8558       447  IM1       H4            -19.4475283535      -11.7325158162       32.5265421786  IM1       207             0.0000000000
      8559       447  IM1       C3            -20.6446335236       -9.8285186607       32.5623704369  IM1       207             0.0000000000
      8560       447  IM1       DC3           -20.6501585579       -9.8450495380       32.5656710653  IM1       207             0.0000000000
      8561       447  IM1       H5            -19.9454021849       -9.0062703438       32.4736447833  IM1       207             0.0000000000
      8562       447  IM1       C4            -22.5395830232      -10.8305244890       32.7435745197  IM1       207             0.0000000000
      8563       447  IM1       DC4           -22.5401399937      -10.8420187629       32.7504550050  IM1       207             0.0000000000
      8564       447  IM1       H6            -23.6057744796      -11.0451145527       32.8162854733  IM1       207             0.0000000000
      8565       447  IM1       N2            -21.9953669442       -9.6241406428       32.6617104892  IM1       207             0.0000000000
      8566       447  IM1       DN2           -21.9978358187       -9.6284718103       32.6626182436  IM1       207             0.0000000000
      8567       447  IM1       H7            -22.4777481521       -8.7481826005       32.6592857849  IM1       207             0.0000000000
      8568       447  IM1       LPN21         -22.1442964573       -9.3637379467       32.6649409724  IM1       207             0.0000000000
      8569       448  IM1       C1             36.7601299948       34.1320998297      -30.2989959231  IM1       208             0.0000000000
      8570       448  IM1       DC1            36.7611253130       34.1259174324      -30.3158528746  IM1       208             0.0000000000
      8571       448  IM1       H1             36.9777250394       33.0582953139      -30.1148295335  IM1       208             0.0000000000
      8572       448  IM1       H2             35.7280303288       34.3757000582      -29.9677102336  IM1       208             0.0000000000
      8573       448  IM1       H3             37.4935630713       34.7592739488      -29.7484965608  IM1       208             0.0000000000
      8574       448  IM1       N1             36.8746051375       34.4183084147      -31.6906007379  IM1       208             0.0000000000
      8575       448  IM1       DN1            36.8745390102       34.4221838252      -31.7077147350  IM1       208             0.0000000000
      8576       448  IM1       C2             37.2373749427       33.5572987916      -32.7023716471  IM1       208             0.0000000000
      8577       448  IM1       DC2            37.2371381660       33.5605683233      -32.7024881482  IM1       208             0.0000000000
      8578       448  IM1       H4             37.4581452290       32.5164446921      -32.5004503153  IM1       208             0.0000000000
      8579       448  IM1       C3             37.2369205554       34.3154407486      -33.8540706020  IM1       208             0.0000000000
      8580       448  IM1       DC3            37.2450631461       34.3175659660      -33.8643100699  IM1       208             0.0000000000
      8581       448  IM1       H5             37.4550348039       34.0470156850      -34.8803567024  IM1       208             0.0000000000
      8582       448  IM1       C4             36.6903830634       35.6347489391      -32.2676824933  IM1       208             0.0000000000
      8583       448  IM1       DC4            36.6951842908       35.6318305314      -32.2693279652  IM1       208             0.0000000000
      8584       448  IM1       H6             36.4407992555       36.5151455322      -31.6754749607  IM1       208             0.0000000000
      8585       448  IM1       N2             36.9061849846       35.5999864542      -33.5769606960  IM1       208             0.0000000000
      8586       448  IM1       DN2            36.9094927977       35.5983946865      -33.5817469765  IM1       208             0.0000000000
      8587       448  IM1       H7             36.8367984314       36.3556327179      -34.2282549693  IM1       208             0.0000000000
      8588       448  IM1       LPN21          36.8849527808       35.8307509145      -33.7674782998  IM1       208             0.0000000000
      8589       449  IM1       C1             28.6464140954       -2.6239764631       17.1761676874  IM1       209             0.0000000000
      8590       449  IM1       DC1            28.6591076754       -2.6224952070       17.1601364625  IM1       209             0.0000000000
      8591       449  IM1       H1             29.3254694298       -2.9322846619       16.3526685014  IM1       209             0.0000000000
      8592       449  IM1       H2             27.6433815677       -3.0756927105       17.0206068292  IM1       209             0.0000000000
      8593       449  IM1       H3             29.0567340412       -2.9388049542       18.1594487068  IM1       209             0.0000000000
      8594       449  IM1       N1             28.4999178015       -1.2137314442       17.1697041141  IM1       209             0.0000000000
      8595       449  IM1       DN1            28.5071281720       -1.2128469986       17.1583074587  IM1       209             0.0000000000
      8596       449  IM1       C2             29.1704279367       -0.3405209868       16.3396541495  IM1       209             0.0000000000
      8597       449  IM1       DC2            29.1729264318       -0.3500913260       16.3308787452  IM1       209             0.0000000000
      8598       449  IM1       H4             29.8497446183       -0.6987880805       15.5760688329  IM1       209             0.0000000000
      8599       449  IM1       C3             28.7421663540        0.9193044618       16.6967706619  IM1       209             0.0000000000
      8600       449  IM1       DC3            28.7503691222        0.9232686539       16.6770743206  IM1       209             0.0000000000
      8601       449  IM1       H5             29.0096681670        1.8750932480       16.2634121774  IM1       209             0.0000000000
      8602       449  IM1       C4             27.6964674412       -0.4639522087       17.9729639436  IM1       209             0.0000000000
      8603       449  IM1       DC4            27.7190258715       -0.4697693864       17.9523792326  IM1       209             0.0000000000
      8604       449  IM1       H6             27.0575648952       -0.8994611108       18.7412318220  IM1       209             0.0000000000
      8605       449  IM1       N2             27.8241431298        0.8307241680       17.6957675697  IM1       209             0.0000000000
      8606       449  IM1       DN2            27.8368858541        0.8297933743       17.6814241923  IM1       209             0.0000000000
      8607       449  IM1       H7             27.3454676120        1.5814887991       18.1509842424  IM1       209             0.0000000000
      8608       449  IM1       LPN21          27.6770813044        1.0550728267       17.8300824939  IM1       209             0.0000000000
      8609       450  IM1       C1             31.8613735178      -33.4140527604      -22.4808008446  IM1       210             0.0000000000
      8610       450  IM1       DC1            31.8629096349      -33.4320279113      -22.4747563698  IM1       210             0.0000000000
      8611       450  IM1       H1             32.9248121589      -33.0926224452      -22.4908908981  IM1       210             0.0000000000
      8612       450  IM1       H2             31.3502547562      -33.0328430989      -23.3906128069  IM1       210             0.0000000000
      8613       450  IM1       H3             31.8494921106      -34.5244800742      -22.4471703020  IM1       210             0.0000000000
      8614       450  IM1       N1             31.2073166325      -32.9016159096      -21.3232802768  IM1       210             0.0000000000
      8615       450  IM1       DN1            31.1880465632      -32.9208859329      -21.3365996825  IM1       210             0.0000000000
      8616       450  IM1       C2             31.8371807621      -32.2561754616      -20.2975074258  IM1       210             0.0000000000
      8617       450  IM1       DC2            31.8251016142      -32.2820999003      -20.3288203426  IM1       210             0.0000000000
      8618       450  IM1       H4             32.8987575867      -32.0445483554      -20.3315311435  IM1       210             0.0000000000
      8619       450  IM1       C3             30.8675080534      -31.9316418075      -19.3743804211  IM1       210             0.0000000000
      8620       450  IM1       DC3            30.8591477737      -31.9460231687      -19.3906303454  IM1       210             0.0000000000
      8621       450  IM1       H5             30.9936430852      -31.4000434071      -18.4392964171  IM1       210             0.0000000000
      8622       450  IM1       C4             29.8892465179      -32.9630736258      -20.9851267946  IM1       210             0.0000000000
      8623       450  IM1       DC4            29.8817157968      -32.9752519381      -20.9899312007  IM1       210             0.0000000000
      8624       450  IM1       H6             29.1402815272      -33.4171505843      -21.6339453813  IM1       210             0.0000000000
      8625       450  IM1       N2             29.6516195074      -32.3975332923      -19.8080734986  IM1       210             0.0000000000
      8626       450  IM1       DN2            29.6385588788      -32.4055799751      -19.8101839218  IM1       210             0.0000000000
      8627       450  IM1       H7             28.7679558000      -32.2910251394      -19.3522287163  IM1       210             0.0000000000
      8628       450  IM1       LPN21          29.3849967153      -32.3792811811      -19.6717681533  IM1       210             0.0000000000
      8629       451  IM1       C1             16.7991149400       30.5387422244       14.6148439148  IM1       211             0.0000000000
      8630       451  IM1       DC1            16.8143295633       30.5437655931       14.6027298043  IM1       211             0.0000000000
      8631       451  IM1       H1             15.7593015032       30.9234571107       14.5434053105  IM1       211             0.0000000000
      8632       451  IM1       H2             16.8965696750       29.9277531855       15.5376201443  IM1       211             0.0000000000
      8633       451  IM1       H3             17.0272909462       29.9342260029       13.7110647116  IM1       211             0.0000000000
      8634       451  IM1       N1             17.7089095116       31.6366388511       14.6914214959  IM1       211             0.0000000000
      8635       451  IM1       DN1            17.7388838192       31.6248288595       14.6849988781  IM1       211             0.0000000000
      8636       451  IM1       C2             17.3948223946       32.9700078673       14.6088076276  IM1       211             0.0000000000
      8637       451  IM1       DC2            17.4158252748       32.9423707066       14.6061720513  IM1       211             0.0000000000
      8638       451  IM1       H4             16.3591132843       33.2829447828       14.5612037858  IM1       211             0.0000000000
      8639       451  IM1       C3             18.5796527966       33.6673152520       14.6922892333  IM1       211             0.0000000000
      8640       451  IM1       DC3            18.5964711891       33.6520952002       14.6982938745  IM1       211             0.0000000000
      8641       451  IM1       H5             18.7381630579       34.7386013457       14.7027583630  IM1       211             0.0000000000
      8642       451  IM1       C4             19.0584969152       31.5706367231       14.8039277703  IM1       211             0.0000000000
      8643       451  IM1       DC4            19.0740565251       31.5600434781       14.7891453434  IM1       211             0.0000000000
      8644       451  IM1       H6             19.5940445067       30.6249216374       14.8870647299  IM1       211             0.0000000000
      8645       451  IM1       N2             19.6128093204       32.7735786162       14.7779509465  IM1       211             0.0000000000
      8646       451  IM1       DN2            19.6257623936       32.7632064834       14.7755661197  IM1       211             0.0000000000
      8647       451  IM1       H7             20.5836063701       32.9895918347       14.8823127187  IM1       211             0.0000000000
      8648       451  IM1       LPN21          19.9070850604       32.8308440102       14.7890172705  IM1       211             0.0000000000
      8649       452  IM1       C1             18.7258554325      -18.9553901519      -20.1133982407  IM1       212             0.0000000000
      8650       452  IM1       DC1            18.6945969429      -18.9509133007      -20.0875338031  IM1       212             0.0000000000
      8651       452  IM1       H1             18.3933570390      -19.9250724234      -20.5417463594  IM1       212             0.0000000000
      8652       452  IM1       H2             19.4344155985      -19.1496934271      -19.2800257364  IM1       212             0.0000000000
      8653       452  IM1       H3             19.2490334687      -18.3844502237      -20.9100370179  IM1       212             0.0000000000
      8654       452  IM1       N1             17.5893033423      -18.1936995577      -19.6482982498  IM1       212             0.0000000000
      8655       452  IM1       DN1            17.5773520601      -18.1743247624      -19.6316131912  IM1       212             0.0000000000
      8656       452  IM1       C2             16.2542290676      -18.5500373838      -19.6800763936  IM1       212             0.0000000000
      8657       452  IM1       DC2            16.2663499930      -18.5569608180      -19.6585210713  IM1       212             0.0000000000
      8658       452  IM1       H4             15.9231139766      -19.4765025530      -20.1327507653  IM1       212             0.0000000000
      8659       452  IM1       C3             15.5387255298      -17.4491847187      -19.2560686842  IM1       212             0.0000000000
      8660       452  IM1       DC3            15.5568587269      -17.4564343708      -19.2262694644  IM1       212             0.0000000000
      8661       452  IM1       H5             14.4637791362      -17.3353058999      -19.1896543376  IM1       212             0.0000000000
      8662       452  IM1       C4             17.6190206041      -16.9214254372      -19.1709994761  IM1       212             0.0000000000
      8663       452  IM1       DC4            17.6227971613      -16.9129147436      -19.1617376256  IM1       212             0.0000000000
      8664       452  IM1       H6             18.5587304900      -16.3869524251      -19.0317732941  IM1       212             0.0000000000
      8665       452  IM1       N2             16.4085413487      -16.4644373367      -18.8736841825  IM1       212             0.0000000000
      8666       452  IM1       DN2            16.4133402370      -16.4530798943      -18.8660883093  IM1       212             0.0000000000
      8667       452  IM1       H7             16.1788003139      -15.5579956540      -18.5193079238  IM1       212             0.0000000000
      8668       452  IM1       LPN21          16.3458906259      -16.1990630853      -18.7485786528  IM1       212             0.0000000000
      8669       453  IM1       C1              1.7173677492      -32.0095774335       -7.0064618131  IM1       213             0.0000000000
      8670       453  IM1       DC1             1.7128900803      -31.9788118885       -7.0306822644  IM1       213             0.0000000000
      8671       453  IM1       H1              2.7765832074      -31.8741193905       -7.3131126473  IM1       213             0.0000000000
      8672       453  IM1       H2              1.2997012315      -32.8980602210       -7.5265329786  IM1       213             0.0000000000
      8673       453  IM1       H3              1.6702474532      -32.1642076024       -5.9072847625  IM1       213             0.0000000000
      8674       453  IM1       N1              0.9539706956      -30.8487952677       -7.3466657244  IM1       213             0.0000000000
      8675       453  IM1       DN1             0.9490715263      -30.8192610463       -7.3667888952  IM1       213             0.0000000000
      8676       453  IM1       C2              1.4336743115      -29.6778181881       -7.8945388580  IM1       213             0.0000000000
      8677       453  IM1       DC2             1.4314414411      -29.6612552301       -7.9183842573  IM1       213             0.0000000000
      8678       453  IM1       H4              2.4857214561      -29.5620423926       -8.1240639563  IM1       213             0.0000000000
      8679       453  IM1       C3              0.3539245658      -28.8373405247       -8.0048858599  IM1       213             0.0000000000
      8680       453  IM1       DC3             0.3383232031      -28.8138885421       -8.0174627098  IM1       213             0.0000000000
      8681       453  IM1       H5              0.3196630195      -27.8447522378       -8.4367233748  IM1       213             0.0000000000
      8682       453  IM1       C4             -0.3861729447      -30.6708026606       -7.1685283888  IM1       213             0.0000000000
      8683       453  IM1       DC4            -0.3783141126      -30.6566522716       -7.1828786790  IM1       213             0.0000000000
      8684       453  IM1       H6             -1.0177352077      -31.4666011696       -6.7736437969  IM1       213             0.0000000000
      8685       453  IM1       N2             -0.7766618958      -29.4537805712       -7.5545614298  IM1       213             0.0000000000
      8686       453  IM1       DN2            -0.7868417376      -29.4314632618       -7.5568582715  IM1       213             0.0000000000
      8687       453  IM1       H7             -1.7146980997      -29.1078812002       -7.5755782144  IM1       213             0.0000000000
      8688       453  IM1       LPN21          -1.0555001744      -29.3437358115       -7.5427561231  IM1       213             0.0000000000
      8689       454  IM1       C1            -21.3505424292      -27.1449648529      -14.0614338673  IM1       214             0.0000000000
      8690       454  IM1       DC1           -21.3241113996      -27.1560097024      -14.0499549649  IM1       214             0.0000000000
      8691       454  IM1       H1            -20.7228805531      -27.8731179758      -14.6183491203  IM1       214             0.0000000000
      8692       454  IM1       H2            -21.1708886619      -27.2261741895      -12.9680672463  IM1       214             0.0000000000
      8693       454  IM1       H3            -21.1397915481      -26.1158447524      -14.4231200397  IM1       214             0.0000000000
      8694       454  IM1       N1            -22.7128546093      -27.4295000383      -14.3176371343  IM1       214             0.0000000000
      8695       454  IM1       DN1           -22.6923392550      -27.4190553530      -14.3017664180  IM1       214             0.0000000000
      8696       454  IM1       C2            -23.1915254549      -28.4544734036      -15.0935322875  IM1       214             0.0000000000
      8697       454  IM1       DC2           -23.1616970132      -28.4396473735      -15.0697045125  IM1       214             0.0000000000
      8698       454  IM1       H4            -22.5365517664      -29.1078295206      -15.6565813543  IM1       214             0.0000000000
      8699       454  IM1       C3            -24.5663334456      -28.3582411921      -15.0382167850  IM1       214             0.0000000000
      8700       454  IM1       DC3           -24.5515222598      -28.3648277917      -15.0260952215  IM1       214             0.0000000000
      8701       454  IM1       H5            -25.3057108302      -28.9495255408      -15.5641377887  IM1       214             0.0000000000
      8702       454  IM1       C4            -23.7937018956      -26.7755233350      -13.8130197068  IM1       214             0.0000000000
      8703       454  IM1       DC4           -23.7776245133      -26.7829481699      -13.8052293962  IM1       214             0.0000000000
      8704       454  IM1       H6            -23.6987694116      -25.8922468453      -13.1814261130  IM1       214             0.0000000000
      8705       454  IM1       N2            -24.9294154622      -27.3357253804      -14.2049061808  IM1       214             0.0000000000
      8706       454  IM1       DN2           -24.9251954071      -27.3404730955      -14.1962154477  IM1       214             0.0000000000
      8707       454  IM1       H7            -25.8549337420      -27.0041585185      -14.0219326040  IM1       214             0.0000000000
      8708       454  IM1       LPN21         -25.2053468174      -27.2505680029      -14.1236036084  IM1       214             0.0000000000
      8709       455  IM1       C1            -17.3273366240       33.9608942490        7.0706787125  IM1       215             0.0000000000
      8710       455  IM1       DC1           -17.3463187119       33.9813241725        7.0720258213  IM1       215             0.0000000000
      8711       455  IM1       H1            -18.1470140839       33.4728122841        7.6400870531  IM1       215             0.0000000000
      8712       455  IM1       H2            -16.5280902503       34.2900047598        7.7686848054  IM1       215             0.0000000000
      8713       455  IM1       H3            -16.9164532685       33.2454455127        6.3266162317  IM1       215             0.0000000000
      8714       455  IM1       N1            -17.8150414377       35.0781023181        6.3500306068  IM1       215             0.0000000000
      8715       455  IM1       DN1           -17.8350066872       35.0913088225        6.3487732424  IM1       215             0.0000000000
      8716       455  IM1       C2            -19.1197074150       35.5197740863        6.3188862942  IM1       215             0.0000000000
      8717       455  IM1       DC2           -19.1435059865       35.5098773750        6.3314857291  IM1       215             0.0000000000
      8718       455  IM1       H4            -19.8805668748       35.0182414973        6.9040759597  IM1       215             0.0000000000
      8719       455  IM1       C3            -19.1235282681       36.6017558589        5.4649133394  IM1       215             0.0000000000
      8720       455  IM1       DC3           -19.1376442334       36.5970745246        5.4702393333  IM1       215             0.0000000000
      8721       455  IM1       H5            -19.9586368665       37.2252141007        5.1703247258  IM1       215             0.0000000000
      8722       455  IM1       C4            -17.0951054267       35.8870201145        5.5250954742  IM1       215             0.0000000000
      8723       455  IM1       DC4           -17.1105052766       35.8809239536        5.5382380215  IM1       215             0.0000000000
      8724       455  IM1       H6            -16.0270263355       35.7482670966        5.3576002326  IM1       215             0.0000000000
      8725       455  IM1       N2            -17.8671743702       36.8245349382        4.9841047561  IM1       215             0.0000000000
      8726       455  IM1       DN2           -17.8800802182       36.8240514309        4.9896008563  IM1       215             0.0000000000
      8727       455  IM1       H7            -17.5742615675       37.5374115563        4.3469163859  IM1       215             0.0000000000
      8728       455  IM1       LPN21         -17.7774513318       37.0393658356        4.7949025842  IM1       215             0.0000000000
      8729       456  IM1       C1            -14.1673451337       21.7149449187       26.7555185096  IM1       216             0.0000000000
      8730       456  IM1       DC1           -14.1808130788       21.7274709128       26.7576990352  IM1       216             0.0000000000
      8731       456  IM1       H1            -13.9973573236       22.4005126991       25.8979510399  IM1       216             0.0000000000
      8732       456  IM1       H2            -15.0679141362       21.0910128493       26.5711134001  IM1       216             0.0000000000
      8733       456  IM1       H3            -13.2773824715       21.0625423745       26.8845858645  IM1       216             0.0000000000
      8734       456  IM1       N1            -14.3593157203       22.4775323859       27.9553804572  IM1       216             0.0000000000
      8735       456  IM1       DN1           -14.3636894777       22.4748274290       27.9674623754  IM1       216             0.0000000000
      8736       456  IM1       C2            -14.3196915769       23.8525919782       28.0859542758  IM1       216             0.0000000000
      8737       456  IM1       DC2           -14.3162725207       23.8346907269       28.0887447597  IM1       216             0.0000000000
      8738       456  IM1       H4            -14.1544178808       24.4903200331       27.2263749989  IM1       216             0.0000000000
      8739       456  IM1       C3            -14.5186585578       24.1281311326       29.4209732938  IM1       216             0.0000000000
      8740       456  IM1       DC3           -14.5241762097       24.1213956699       29.4267355754  IM1       216             0.0000000000
      8741       456  IM1       H5            -14.5782174615       25.0959452897       29.9033398499  IM1       216             0.0000000000
      8742       456  IM1       C4            -14.5654487911       21.9836142736       29.2057339525  IM1       216             0.0000000000
      8743       456  IM1       DC4           -14.5728723836       21.9864474683       29.2076423742  IM1       216             0.0000000000
      8744       456  IM1       H6            -14.6374673886       20.9127629234       29.3959725063  IM1       216             0.0000000000
      8745       456  IM1       N2            -14.6864981150       22.9545933396       30.1065101510  IM1       216             0.0000000000
      8746       456  IM1       DN2           -14.6959863823       22.9495934751       30.1139931169  IM1       216             0.0000000000
      8747       456  IM1       H7            -14.8582594171       22.8477354323       31.0858361656  IM1       216             0.0000000000
      8748       456  IM1       LPN21         -14.7398297751       22.9171477484       30.3993472418  IM1       216             0.0000000000
      8749       457  IM1       C1             29.5635483735      -23.5073359195      -36.4706919148  IM1       217             0.0000000000
      8750       457  IM1       DC1            29.5585669381      -23.5211271708      -36.4742332137  IM1       217             0.0000000000
      8751       457  IM1       H1             29.7464157721      -24.5954316664      -36.3405836493  IM1       217             0.0000000000
      8752       457  IM1       H2             29.7802296963      -22.9689487297      -35.5233221674  IM1       217             0.0000000000
      8753       457  IM1       H3             30.2363876158      -23.1296736474      -37.2700538880  IM1       217             0.0000000000
      8754       457  IM1       N1             28.1867887685      -23.2876517072      -36.8282692389  IM1       217             0.0000000000
      8755       457  IM1       DN1            28.1832493691      -23.2764221114      -36.8363184315  IM1       217             0.0000000000
      8756       457  IM1       C2             27.2179660902      -24.2608376340      -36.9339776041  IM1       217             0.0000000000
      8757       457  IM1       DC2            27.2352982197      -24.2508392821      -36.9384049373  IM1       217             0.0000000000
      8758       457  IM1       H4             27.4365785586      -25.3060921823      -36.7535876986  IM1       217             0.0000000000
      8759       457  IM1       C3             26.0416228838      -23.6100215808      -37.2444164014  IM1       217             0.0000000000
      8760       457  IM1       DC3            26.0483461576      -23.5977167906      -37.2512312751  IM1       217             0.0000000000
      8761       457  IM1       H5             25.0560046489      -24.0389270480      -37.3766502669  IM1       217             0.0000000000
      8762       457  IM1       C4             27.5645157471      -22.0992385475      -37.0864393706  IM1       217             0.0000000000
      8763       457  IM1       DC4            27.5649456925      -22.1023210982      -37.1009605519  IM1       217             0.0000000000
      8764       457  IM1       H6             28.0971257423      -21.1484569840      -37.0654390985  IM1       217             0.0000000000
      8765       457  IM1       N2             26.2781417556      -22.2671365892      -37.3839321280  IM1       217             0.0000000000
      8766       457  IM1       DN2            26.2758179313      -22.2585488590      -37.3998936054  IM1       217             0.0000000000
      8767       457  IM1       H7             25.6040026976      -21.5500021905      -37.5607223564  IM1       217             0.0000000000
      8768       457  IM1       LPN21          26.0855654119      -22.0515288435      -37.4641047661  IM1       217             0.0000000000
      8769       458  HOAC      C1              9.9727633766      -36.2425103207       -3.2145529972  HOAC      1               0.0000000000
      8770       458  HOAC      DC1             9.9882764810      -36.2473055363       -3.2399420377  HOAC      1               0.0000000000
      8771       458  HOAC      C2              9.7031168284      -35.7077786994       -4.5553521784  HOAC      1               0.0000000000
      8772       458  HOAC      DC2             9.7383619023      -35.7220539563       -4.5722694423  HOAC      1               0.0000000000
      8773       458  HOAC      H1             10.6478921625      -35.3506164189       -5.0181217479  HOAC      1               0.0000000000
      8774       458  HOAC      H2              8.9916987669      -34.8587662855       -4.4694262627  HOAC      1               0.0000000000
      8775       458  HOAC      H3              9.2269052581      -36.5016806444       -5.1695697651  HOAC      1               0.0000000000
      8776       458  HOAC      O1              9.4105020472      -35.9008230156       -2.2035401296  HOAC      1               0.0000000000
      8777       458  HOAC      DO1             9.4523900236      -35.9268134534       -2.2186386731  HOAC      1               0.0000000000
      8778       458  HOAC      O2             10.9834155123      -37.1663894894       -3.2383658129  HOAC      1               0.0000000000
      8779       458  HOAC      DO2            11.0028873020      -37.1606297304       -3.2774212578  HOAC      1               0.0000000000
      8780       458  HOAC      H              11.0866793500      -37.4457258288       -2.3162656073  HOAC      1               0.0000000000
      8781       458  HOAC      LPO11           9.5810425505      -36.0856592594       -2.0399812726  HOAC      1               0.0000000000
      8782       458  HOAC      LPO12           9.2350805522      -35.7130205838       -2.3583223821  HOAC      1               0.0000000000
      8783       458  HOAC      LPO21          10.8572119201      -37.4880994635       -3.2938216139  HOAC      1               0.0000000000
      8784       458  HOAC      LPO22          11.2948799033      -37.0117804750       -3.1985413758  HOAC      1               0.0000000000
      8785       459  HOAC      C1             16.4567012086       -0.4739067607        4.5716248025  HOAC      2               0.0000000000
      8786       459  HOAC      DC1            16.4573655506       -0.4836510814        4.5610467356  HOAC      2               0.0000000000
      8787       459  HOAC      C2             16.4516532705       -1.9157482374        4.9375882524  HOAC      2               0.0000000000
      8788       459  HOAC      DC2            16.4674098835       -1.9060332980        4.9268769411  HOAC      2               0.0000000000
      8789       459  HOAC      H1             17.4754717135       -2.2315654502        5.2314866779  HOAC      2               0.0000000000
      8790       459  HOAC      H2             16.1021858331       -2.5268469934        4.0780815214  HOAC      2               0.0000000000
      8791       459  HOAC      H3             15.7616709160       -2.0697070743        5.7946425261  HOAC      2               0.0000000000
      8792       459  HOAC      O1             16.0653585415       -0.0165908824        3.5074762157  HOAC      2               0.0000000000
      8793       459  HOAC      DO1            16.0744250265       -0.0071190396        3.5199051383  HOAC      2               0.0000000000
      8794       459  HOAC      O2             17.0053290621        0.2813968363        5.5595814011  HOAC      2               0.0000000000
      8795       459  HOAC      DO2            17.0159819025        0.2585911069        5.5510938309  HOAC      2               0.0000000000
      8796       459  HOAC      H              16.8576217546        1.2137394452        5.3407645579  HOAC      2               0.0000000000
      8797       459  HOAC      LPO11          16.1452164383        0.2602416288        3.5910613642  HOAC      2               0.0000000000
      8798       459  HOAC      LPO12          15.9821487769       -0.2895064623        3.4147765860  HOAC      2               0.0000000000
      8799       459  HOAC      LPO21          16.7738580622        0.3392812134        5.8156489217  HOAC      2               0.0000000000
      8800       459  HOAC      LPO22          17.3409186269        0.3527894581        5.4904240620  HOAC      2               0.0000000000
      8801       460  HOAC      C1             14.6180172217      -29.0582714241        7.3740375249  HOAC      3               0.0000000000
      8802       460  HOAC      DC1            14.6178271226      -29.0502268982        7.3816893312  HOAC      3               0.0000000000
      8803       460  HOAC      C2             13.4654915885      -28.1587310721        7.6202572377  HOAC      3               0.0000000000
      8804       460  HOAC      DC2            13.4787776666      -28.1722035803        7.6170706748  HOAC      3               0.0000000000
      8805       460  HOAC      H1             13.1226978986      -27.7388330080        6.6504639079  HOAC      3               0.0000000000
      8806       460  HOAC      H2             13.7628847292      -27.3245191416        8.2910543570  HOAC      3               0.0000000000
      8807       460  HOAC      H3             12.6378928832      -28.7296855365        8.0929224285  HOAC      3               0.0000000000
      8808       460  HOAC      O1             15.7336306393      -28.9082810844        7.8485123491  HOAC      3               0.0000000000
      8809       460  HOAC      DO1            15.7228581456      -28.9292845172        7.8435572085  HOAC      3               0.0000000000
      8810       460  HOAC      O2             14.2716268771      -30.0959785651        6.5616791043  HOAC      3               0.0000000000
      8811       460  HOAC      DO2            14.2590190964      -30.0777823597        6.5649496005  HOAC      3               0.0000000000
      8812       460  HOAC      H              15.0388943898      -30.6801658338        6.4668803753  HOAC      3               0.0000000000
      8813       460  HOAC      LPO11          15.8304156589      -29.1580208303        7.7133727202  HOAC      3               0.0000000000
      8814       460  HOAC      LPO12          15.6464088440      -28.6572555963        7.9877192554  HOAC      3               0.0000000000
      8815       460  HOAC      LPO21          14.1364600329      -30.3601258649        6.7473027242  HOAC      3               0.0000000000
      8816       460  HOAC      LPO22          14.3328214377      -30.0176467605        6.2260910322  HOAC      3               0.0000000000
      8817       461  HOAC      C1            -30.8059093497       11.0038313460       -5.8003342601  HOAC      4               0.0000000000
      8818       461  HOAC      DC1           -30.8074890036       11.0050118003       -5.7938543002  HOAC      4               0.0000000000
      8819       461  HOAC      C2            -30.2542365756       12.1223375552       -4.9976440893  HOAC      4               0.0000000000
      8820       461  HOAC      DC2           -30.2719527926       12.0996543220       -5.0031622671  HOAC      4               0.0000000000
      8821       461  HOAC      H1            -30.8756722247       12.3024618076       -4.0944863025  HOAC      4               0.0000000000
      8822       461  HOAC      H2            -30.2449344009       13.0390464741       -5.6252420735  HOAC      4               0.0000000000
      8823       461  HOAC      H3            -29.2101280054       11.8964487119       -4.6924678704  HOAC      4               0.0000000000
      8824       461  HOAC      O1            -31.3363710803       11.1073090405       -6.8931999599  HOAC      4               0.0000000000
      8825       461  HOAC      DO1           -31.3385300146       11.0851545363       -6.8693297152  HOAC      4               0.0000000000
      8826       461  HOAC      O2            -30.6640334855        9.8041984858       -5.1730901870  HOAC      4               0.0000000000
      8827       461  HOAC      DO2           -30.6415772302        9.8101558641       -5.1722957802  HOAC      4               0.0000000000
      8828       461  HOAC      H             -31.1972552039        9.1624968409       -5.6658929852  HOAC      4               0.0000000000
      8829       461  HOAC      LPO11         -31.3839514661       10.8113022168       -6.9039734071  HOAC      4               0.0000000000
      8830       461  HOAC      LPO12         -31.2933467087       11.4042046105       -6.8918128859  HOAC      4               0.0000000000
      8831       461  HOAC      LPO21         -30.3900336340        9.6280124793       -5.3010846107  HOAC      4               0.0000000000
      8832       461  HOAC      LPO22         -30.9050750223        9.7651290042       -4.9223461878  HOAC      4               0.0000000000
      8833       462  HOAC      C1            -26.4636778366      -10.9972520694       -5.9317533286  HOAC      5               0.0000000000
      8834       462  HOAC      DC1           -26.4600880938      -11.0056460085       -5.9296523448  HOAC      5               0.0000000000
      8835       462  HOAC      C2            -24.9801868161      -10.9175101833       -6.0559872460  HOAC      5               0.0000000000
      8836       462  HOAC      DC2           -24.9933539413      -10.9290286940       -6.0235756838  HOAC      5               0.0000000000
      8837       462  HOAC      H1            -24.6851585005       -9.8764516331       -6.3079324552  HOAC      5               0.0000000000
      8838       462  HOAC      H2            -24.6233982998      -11.5914598633       -6.8639567896  HOAC      5               0.0000000000
      8839       462  HOAC      H3            -24.5094662433      -11.1998365044       -5.0900498817  HOAC      5               0.0000000000
      8840       462  HOAC      O1            -27.2117594174      -11.7107830623       -6.5872282783  HOAC      5               0.0000000000
      8841       462  HOAC      DO1           -27.2234560906      -11.6953980538       -6.5643790786  HOAC      5               0.0000000000
      8842       462  HOAC      O2            -26.9096084746      -10.2204399960       -4.9001675579  HOAC      5               0.0000000000
      8843       462  HOAC      DO2           -26.8971251989      -10.2254424136       -4.8942192712  HOAC      5               0.0000000000
      8844       462  HOAC      H             -27.8752775851      -10.3005780392       -4.8954704313  HOAC      5               0.0000000000
      8845       462  HOAC      LPO11         -27.4474342854      -11.6228606029       -6.4237443411  HOAC      5               0.0000000000
      8846       462  HOAC      LPO12         -26.9824839847      -11.8048093953       -6.7563194509  HOAC      5               0.0000000000
      8847       462  HOAC      LPO21         -26.9227655050      -10.4038667574       -4.6023731393  HOAC      5               0.0000000000
      8848       462  HOAC      LPO22         -26.9672005262       -9.8921338713       -5.0069301170  HOAC      5               0.0000000000
      8849       463  HOAC      C1             -1.8332368206       13.8823700632      -11.0469700336  HOAC      6               0.0000000000
      8850       463  HOAC      DC1            -1.8309306431       13.8922732617      -11.0554485217  HOAC      6               0.0000000000
      8851       463  HOAC      C2             -1.7655246826       14.0443698629      -12.5144347241  HOAC      6               0.0000000000
      8852       463  HOAC      DC2            -1.7576926940       14.0429920361      -12.5048349419  HOAC      6               0.0000000000
      8853       463  HOAC      H1             -0.7430637948       14.3629415193      -12.8100811905  HOAC      6               0.0000000000
      8854       463  HOAC      H2             -2.4722880246       14.8411141527      -12.8306705775  HOAC      6               0.0000000000
      8855       463  HOAC      H3             -2.0043240182       13.0820303365      -13.0156318057  HOAC      6               0.0000000000
      8856       463  HOAC      O1             -2.5416926326       14.5361891493      -10.3014319565  HOAC      6               0.0000000000
      8857       463  HOAC      DO1            -2.5174575260       14.5190497626      -10.2872824655  HOAC      6               0.0000000000
      8858       463  HOAC      O2             -0.9320533760       12.9660411665      -10.5955943193  HOAC      6               0.0000000000
      8859       463  HOAC      DO2            -0.9270345532       12.9728856233      -10.6043402420  HOAC      6               0.0000000000
      8860       463  HOAC      H              -1.0846259792       12.8752499811       -9.6429980977  HOAC      6               0.0000000000
      8861       463  HOAC      LPO11          -2.4211485148       14.4027489285      -10.0613011106  HOAC      6               0.0000000000
      8862       463  HOAC      LPO12          -2.6683240477       14.6752472098      -10.5351568814  HOAC      6               0.0000000000
      8863       463  HOAC      LPO21          -1.0623266544       12.6418800799      -10.6167712603  HOAC      6               0.0000000000
      8864       463  HOAC      LPO22          -0.6324575858       13.1210555792      -10.5022514333  HOAC      6               0.0000000000
      8865       464  HOAC      C1            -29.5754101169        3.3489990743       17.1275604529  HOAC      7               0.0000000000
      8866       464  HOAC      DC1           -29.5859645612        3.3569042561       17.1244422800  HOAC      7               0.0000000000
      8867       464  HOAC      C2            -29.2435538422        3.1853113538       18.5566090326  HOAC      7               0.0000000000
      8868       464  HOAC      DC2           -29.2613832822        3.1916861509       18.5191510330  HOAC      7               0.0000000000
      8869       464  HOAC      H1            -29.8674971918        2.3812556173       19.0021537214  HOAC      7               0.0000000000
      8870       464  HOAC      H2            -29.4387150298        4.1306604729       19.1066528071  HOAC      7               0.0000000000
      8871       464  HOAC      H3            -28.1717764893        2.9166352758       18.6724860016  HOAC      7               0.0000000000
      8872       464  HOAC      O1            -30.1288021535        4.3302907635       16.6612187941  HOAC      7               0.0000000000
      8873       464  HOAC      DO1           -30.1379803567        4.3098900602       16.6524516867  HOAC      7               0.0000000000
      8874       464  HOAC      O2            -29.3035291844        2.2474856756       16.3685771738  HOAC      7               0.0000000000
      8875       464  HOAC      DO2           -29.3176820589        2.2407434751       16.3754727613  HOAC      7               0.0000000000
      8876       464  HOAC      H             -29.4779494792        2.5020519316       15.4500269128  HOAC      7               0.0000000000
      8877       464  HOAC      LPO11         -30.1453312585        4.1994254312       16.3917729674  HOAC      7               0.0000000000
      8878       464  HOAC      LPO12         -30.1170256893        4.4695836241       16.9266595857  HOAC      7               0.0000000000
      8879       464  HOAC      LPO21         -28.9670942788        2.2421871307       16.2722263577  HOAC      7               0.0000000000
      8880       464  HOAC      LPO22         -29.5874261518        2.0454743934       16.3355022018  HOAC      7               0.0000000000
      8881       465  HOAC      C1            -31.4847249667      -10.3493695624      -16.4614215962  HOAC      8               0.0000000000
      8882       465  HOAC      DC1           -31.4955142082      -10.3587087479      -16.4494510774  HOAC      8               0.0000000000
      8883       465  HOAC      C2            -32.2324386628      -11.3281820410      -15.6141538495  HOAC      8               0.0000000000
      8884       465  HOAC      DC2           -32.2350006692      -11.3288447583      -15.6013869620  HOAC      8               0.0000000000
      8885       465  HOAC      H1            -31.8585129241      -12.3489627765      -15.8432984148  HOAC      8               0.0000000000
      8886       465  HOAC      H2            -33.3178844287      -11.2766716007      -15.8454008271  HOAC      8               0.0000000000
      8887       465  HOAC      H3            -32.0644750902      -11.1000306379      -14.5398837831  HOAC      8               0.0000000000
      8888       465  HOAC      O1            -31.9848723165       -9.5938002848      -17.2788239875  HOAC      8               0.0000000000
      8889       465  HOAC      DO1           -31.9621650261       -9.6032441794      -17.2671497599  HOAC      8               0.0000000000
      8890       465  HOAC      O2            -30.1504893986      -10.3888182840      -16.1884348128  HOAC      8               0.0000000000
      8891       465  HOAC      DO2           -30.1637520475      -10.3969748163      -16.1679536596  HOAC      8               0.0000000000
      8892       465  HOAC      H             -29.7143649480       -9.7936671704      -16.8165682504  HOAC      8               0.0000000000
      8893       465  HOAC      LPO11         -31.7160229980       -9.4775603787      -17.3436956160  HOAC      8               0.0000000000
      8894       465  HOAC      LPO12         -32.2580133521       -9.7035567223      -17.2209664117  HOAC      8               0.0000000000
      8895       465  HOAC      LPO21         -30.0648515856      -10.1482497104      -15.9490754045  HOAC      8               0.0000000000
      8896       465  HOAC      LPO22         -29.9935277982      -10.6440501949      -16.3693207649  HOAC      8               0.0000000000
      8897       466  HOAC      C1              1.9856466266        0.2225357203       -5.5886545844  HOAC      9               0.0000000000
      8898       466  HOAC      DC1             2.0081953367        0.2208764474       -5.5990977311  HOAC      9               0.0000000000
      8899       466  HOAC      C2              3.4020400078        0.6817171008       -5.5441189842  HOAC      9               0.0000000000
      8900       466  HOAC      DC2             3.4086251060        0.6813838339       -5.5484577775  HOAC      9               0.0000000000
      8901       466  HOAC      H1              3.4814461031        1.6171054897       -6.1383110693  HOAC      9               0.0000000000
      8902       466  HOAC      H2              4.0604112777       -0.0940121370       -5.9903391347  HOAC      9               0.0000000000
      8903       466  HOAC      H3              3.7080306388        0.8793492387       -4.4945322691  HOAC      9               0.0000000000
      8904       466  HOAC      O1              1.5964390034       -0.7094049166       -6.2746702253  HOAC      9               0.0000000000
      8905       466  HOAC      DO1             1.6008485978       -0.6907918240       -6.2759839532  HOAC      9               0.0000000000
      8906       466  HOAC      O2              1.1923847023        1.0517504156       -4.8697682567  HOAC      9               0.0000000000
      8907       466  HOAC      DO2             1.2283593259        1.0573767998       -4.8811168140  HOAC      9               0.0000000000
      8908       466  HOAC      H               0.2723905039        0.7538475207       -4.9316192066  HOAC      9               0.0000000000
      8909       466  HOAC      LPO11           1.3113567705       -0.6507073224       -6.2019879517  HOAC      9               0.0000000000
      8910       466  HOAC      LPO12           1.8781830898       -0.7760955568       -6.3532363014  HOAC      9               0.0000000000
      8911       466  HOAC      LPO21           1.1668568070        0.9435167571       -4.5379041253  HOAC      9               0.0000000000
      8912       466  HOAC      LPO22           1.0807525576        1.3191001570       -5.0661413201  HOAC      9               0.0000000000
      8913       467  HOAC      C1             -8.9065553099        3.9296980429        1.8899127365  HOAC      10              0.0000000000
      8914       467  HOAC      DC1            -8.8999730046        3.9354774175        1.8981485898  HOAC      10              0.0000000000
      8915       467  HOAC      C2             -8.1229268354        3.6135986165        3.1178277737  HOAC      10              0.0000000000
      8916       467  HOAC      DC2            -8.1278531735        3.6208635359        3.1131354726  HOAC      10              0.0000000000
      8917       467  HOAC      H1             -8.8203472006        3.3522306243        3.9422139752  HOAC      10              0.0000000000
      8918       467  HOAC      H2             -7.5094788929        4.4906654327        3.4157479347  HOAC      10              0.0000000000
      8919       467  HOAC      H3             -7.4450119615        2.7563941303        2.9179455771  HOAC      10              0.0000000000
      8920       467  HOAC      O1             -8.9167404113        5.0124702749        1.3224501543  HOAC      10              0.0000000000
      8921       467  HOAC      DO1            -8.9310013435        4.9948172246        1.3211016136  HOAC      10              0.0000000000
      8922       467  HOAC      O2             -9.6570990000        2.8663171883        1.4885651096  HOAC      10              0.0000000000
      8923       467  HOAC      DO2            -9.6438366607        2.8667191791        1.5019982790  HOAC      10              0.0000000000
      8924       467  HOAC      H             -10.1716467377        3.1403509471        0.7145450034  HOAC      10              0.0000000000
      8925       467  HOAC      LPO11          -9.1163581257        4.9116919376        1.1224589175  HOAC      10              0.0000000000
      8926       467  HOAC      LPO12          -8.7172099381        5.1225231826        1.5175807459  HOAC      10              0.0000000000
      8927       467  HOAC      LPO21          -9.4808687941        2.6682463334        1.2600681710  HOAC      10              0.0000000000
      8928       467  HOAC      LPO22          -9.9665949998        2.8631609872        1.6519733852  HOAC      10              0.0000000000
      8929       468  HOAC      C1             10.2227361695       -5.7669873886        3.8333207869  HOAC      11              0.0000000000
      8930       468  HOAC      DC1            10.2247347532       -5.7676859370        3.8146836377  HOAC      11              0.0000000000
      8931       468  HOAC      C2             11.2671320679       -4.7501424569        3.5150473640  HOAC      11              0.0000000000
      8932       468  HOAC      DC2            11.2622390020       -4.7743065430        3.5024580530  HOAC      11              0.0000000000
      8933       468  HOAC      H1             10.9657707539       -3.7489653928        3.8907425139  HOAC      11              0.0000000000
      8934       468  HOAC      H2             11.4208751422       -4.6880801599        2.4164881537  HOAC      11              0.0000000000
      8935       468  HOAC      H3             12.2169543843       -5.0166550347        4.0260557932  HOAC      11              0.0000000000
      8936       468  HOAC      O1              9.6511382837       -6.4619821791        3.0030568965  HOAC      11              0.0000000000
      8937       468  HOAC      DO1             9.6487179322       -6.4633943531        3.0165857800  HOAC      11              0.0000000000
      8938       468  HOAC      O2             10.0010957852       -5.8357487856        5.1736049752  HOAC      11              0.0000000000
      8939       468  HOAC      DO2            10.0193418055       -5.8169337840        5.1512342145  HOAC      11              0.0000000000
      8940       468  HOAC      H               9.3233191228       -6.4938173798        5.3893027292  HOAC      11              0.0000000000
      8941       468  HOAC      LPO11           9.4940396342       -6.5994187013        3.2185359365  HOAC      11              0.0000000000
      8942       468  HOAC      LPO12           9.8033483302       -6.3304896145        2.7804770070  HOAC      11              0.0000000000
      8943       468  HOAC      LPO21          10.2159581889       -6.0675403139        5.3239606699  HOAC      11              0.0000000000
      8944       468  HOAC      LPO22           9.7533924404       -5.6084744737        5.2710187323  HOAC      11              0.0000000000
      8945       469  HOAC      C1            -20.5025273900       27.5317230706       32.6255541627  HOAC      12              0.0000000000
      8946       469  HOAC      DC1           -20.4894672029       27.5269028194       32.6212885623  HOAC      12              0.0000000000
      8947       469  HOAC      C2            -20.1198003446       28.8402094920       33.2206150242  HOAC      12              0.0000000000
      8948       469  HOAC      DC2           -20.1211533404       28.8067401949       33.2057978489  HOAC      12              0.0000000000
      8949       469  HOAC      H1            -21.0220559140       29.4770009880       33.3420748091  HOAC      12              0.0000000000
      8950       469  HOAC      H2            -19.3961494389       29.3681631803       32.5634124144  HOAC      12              0.0000000000
      8951       469  HOAC      H3            -19.6562479255       28.6906738290       34.2191535764  HOAC      12              0.0000000000
      8952       469  HOAC      O1            -20.0743837590       27.0638262915       31.5761133538  HOAC      12              0.0000000000
      8953       469  HOAC      DO1           -20.0803743901       27.0362885618       31.5961482016  HOAC      12              0.0000000000
      8954       469  HOAC      O2            -21.3156954888       26.8264354294       33.4639596530  HOAC      12              0.0000000000
      8955       469  HOAC      DO2           -21.2935393809       26.8269278637       33.4726313281  HOAC      12              0.0000000000
      8956       469  HOAC      H             -21.6618962283       26.0708052109       32.9658341459  HOAC      12              0.0000000000
      8957       469  HOAC      LPO11         -20.2178058153       26.8052459771       31.6267723585  HOAC      12              0.0000000000
      8958       469  HOAC      LPO12         -19.9273054548       27.3184108754       31.5164923667  HOAC      12              0.0000000000
      8959       469  HOAC      LPO21         -21.1337452384       26.5853868770       33.6408486061  HOAC      12              0.0000000000
      8960       469  HOAC      LPO22         -21.6443394511       26.9458741126       33.4488749907  HOAC      12              0.0000000000
      8961       470  HOAC      C1             13.5473978837      -34.0567640516        0.9888484381  HOAC      13              0.0000000000
      8962       470  HOAC      DC1            13.5616207844      -34.0436809198        0.9866204095  HOAC      13              0.0000000000
      8963       470  HOAC      C2             14.6960741173      -33.4018394808        1.6448085694  HOAC      13              0.0000000000
      8964       470  HOAC      DC2            14.7060900482      -33.4026667103        1.6261059062  HOAC      13              0.0000000000
      8965       470  HOAC      H1             15.5349913225      -34.1294482527        1.6783406182  HOAC      13              0.0000000000
      8966       470  HOAC      H2             14.4127360222      -33.1136771711        2.6797013209  HOAC      13              0.0000000000
      8967       470  HOAC      H3             14.9970748506      -32.4945208559        1.0786880237  HOAC      13              0.0000000000
      8968       470  HOAC      O1             12.5375897304      -34.4240097573        1.5496956639  HOAC      13              0.0000000000
      8969       470  HOAC      DO1            12.5574157883      -34.4250967072        1.5115680734  HOAC      13              0.0000000000
      8970       470  HOAC      O2             13.7450212552      -34.2002394236       -0.3524079061  HOAC      13              0.0000000000
      8971       470  HOAC      DO2            13.7578185122      -34.1703365064       -0.3525571294  HOAC      13              0.0000000000
      8972       470  HOAC      H              13.0356295745      -34.7879078244       -0.6530244294  HOAC      13              0.0000000000
      8973       470  HOAC      LPO11          12.4229885935      -34.5221595028        1.2904019947  HOAC      13              0.0000000000
      8974       470  HOAC      LPO12          12.6434668785      -34.3290327405        1.8138346345  HOAC      13              0.0000000000
      8975       470  HOAC      LPO21          13.5765651004      -33.9506682824       -0.5308365176  HOAC      13              0.0000000000
      8976       470  HOAC      LPO22          13.9587867254      -34.4692442475       -0.4190466973  HOAC      13              0.0000000000
      8977       471  HOAC      C1            -23.1030665318      -32.7891352583      -23.3505674628  HOAC      14              0.0000000000
      8978       471  HOAC      DC1           -23.0863973948      -32.7995316358      -23.3564636170  HOAC      14              0.0000000000
      8979       471  HOAC      C2            -22.2817382510      -33.4733270636      -22.3043408373  HOAC      14              0.0000000000
      8980       471  HOAC      DC2           -22.2738780358      -33.4680864200      -22.3080915477  HOAC      14              0.0000000000
      8981       471  HOAC      H1            -21.8085038726      -32.7051656588      -21.6560366800  HOAC      14              0.0000000000
      8982       471  HOAC      H2            -21.4963366337      -34.0985354288      -22.7803448296  HOAC      14              0.0000000000
      8983       471  HOAC      H3            -22.9396536376      -34.1190062053      -21.6842063439  HOAC      14              0.0000000000
      8984       471  HOAC      O1            -22.8961930827      -32.8376812876      -24.5573803441  HOAC      14              0.0000000000
      8985       471  HOAC      DO1           -22.8988674960      -32.8229476508      -24.5524024754  HOAC      14              0.0000000000
      8986       471  HOAC      O2            -24.0900111058      -32.0565255524      -22.7752784710  HOAC      14              0.0000000000
      8987       471  HOAC      DO2           -24.0688477505      -32.0756034109      -22.7685242202  HOAC      14              0.0000000000
      8988       471  HOAC      H             -24.6072414979      -31.6124558726      -23.4639263062  HOAC      14              0.0000000000
      8989       471  HOAC      LPO11         -23.1245858579      -32.6502460837      -24.6093878875  HOAC      14              0.0000000000
      8990       471  HOAC      LPO12         -22.6660324741      -33.0255313407      -24.5156855986  HOAC      14              0.0000000000
      8991       471  HOAC      LPO21         -24.3795212233      -32.2485752647      -22.7328426385  HOAC      14              0.0000000000
      8992       471  HOAC      LPO22         -23.9785858748      -31.7330347318      -22.7015349501  HOAC      14              0.0000000000
      8993       472  HOAC      C1            -13.7613230352       -9.0000110525      -24.5733376678  HOAC      15              0.0000000000
      8994       472  HOAC      DC1           -13.7578411473       -9.0036617741      -24.5761803313  HOAC      15              0.0000000000
      8995       472  HOAC      C2            -13.0440649501       -7.7720231051      -24.1375372872  HOAC      15              0.0000000000
      8996       472  HOAC      DC2           -13.0450873423       -7.8046877742      -24.1518974443  HOAC      15              0.0000000000
      8997       472  HOAC      H1            -11.9494853535       -7.9602946825      -24.1097826334  HOAC      15              0.0000000000
      8998       472  HOAC      H2            -13.3883350507       -7.4579494505      -23.1289953509  HOAC      15              0.0000000000
      8999       472  HOAC      H3            -13.2465646909       -6.9334735784      -24.8376440993  HOAC      15              0.0000000000
      9000       472  HOAC      O1            -14.5651452685       -9.6444799358      -23.9143198604  HOAC      15              0.0000000000
      9001       472  HOAC      DO1           -14.5544835645       -9.6595300697      -23.9495984453  HOAC      15              0.0000000000
      9002       472  HOAC      O2            -13.3873271005       -9.3905117359      -25.8357698180  HOAC      15              0.0000000000
      9003       472  HOAC      DO2           -13.3764522393       -9.3836731347      -25.8445079518  HOAC      15              0.0000000000
      9004       472  HOAC      H             -13.9595015994      -10.1413036849      -26.0546048976  HOAC      15              0.0000000000
      9005       472  HOAC      LPO11         -14.5940872058       -9.8447757609      -24.1357785399  HOAC      15              0.0000000000
      9006       472  HOAC      LPO12         -14.5430856293       -9.4497020310      -23.6872186933  HOAC      15              0.0000000000
      9007       472  HOAC      LPO21         -13.5692364436       -9.2168722213      -26.0792001157  HOAC      15              0.0000000000
      9008       472  HOAC      LPO22         -13.1295595171       -9.6268791895      -25.8221206486  HOAC      15              0.0000000000
      9009       473  HOAC      C1            -13.1730361961        3.9026922339      -12.2527205218  HOAC      16              0.0000000000
      9010       473  HOAC      DC1           -13.1876371303        3.9103756410      -12.2519686883  HOAC      16              0.0000000000
      9011       473  HOAC      C2            -14.4466833056        4.3783055347      -12.8503472211  HOAC      16              0.0000000000
      9012       473  HOAC      DC2           -14.4490501358        4.3833959474      -12.8335172490  HOAC      16              0.0000000000
      9013       473  HOAC      H1            -15.3006054622        3.8453438399      -12.3801453680  HOAC      16              0.0000000000
      9014       473  HOAC      H2            -14.4579783673        4.1568632844      -13.9389962698  HOAC      16              0.0000000000
      9015       473  HOAC      H3            -14.5470860415        5.4722642979      -12.6845325152  HOAC      16              0.0000000000
      9016       473  HOAC      O1            -12.2577787527        3.4011894869      -12.8747891113  HOAC      16              0.0000000000
      9017       473  HOAC      DO1           -12.2660103351        3.4252904787      -12.8498634230  HOAC      16              0.0000000000
      9018       473  HOAC      O2            -13.1270480474        4.1399133405      -10.9065602096  HOAC      16              0.0000000000
      9019       473  HOAC      DO2           -13.1466948472        4.1508171978      -10.9091905397  HOAC      16              0.0000000000
      9020       473  HOAC      H             -12.2925399072        3.7688083328      -10.5827728761  HOAC      16              0.0000000000
      9021       473  HOAC      LPO11         -12.0928687038        3.3797529016      -12.6250990063  HOAC      16              0.0000000000
      9022       473  HOAC      LPO12         -12.4148005352        3.4183038050      -13.1298405962  HOAC      16              0.0000000000
      9023       473  HOAC      LPO21         -12.9792957944        4.4500079033      -10.8393989568  HOAC      16              0.0000000000
      9024       473  HOAC      LPO22         -13.2765614737        3.8783039744      -10.7284976506  HOAC      16              0.0000000000
      9025       474  HOAC      C1            -24.6371809790        5.0607337971       14.8767495543  HOAC      17              0.0000000000
      9026       474  HOAC      DC1           -24.6547218852        5.0535704872       14.8838016543  HOAC      17              0.0000000000
      9027       474  HOAC      C2            -25.0996487283        4.6908255337       16.2443167811  HOAC      17              0.0000000000
      9028       474  HOAC      DC2           -25.1032536681        4.6872702978       16.2428260492  HOAC      17              0.0000000000
      9029       474  HOAC      H1            -24.2865830607        4.1315756600       16.7546938961  HOAC      17              0.0000000000
      9030       474  HOAC      H2            -26.0075562161        4.0537604522       16.1797174342  HOAC      17              0.0000000000
      9031       474  HOAC      H3            -25.3433108194        5.6076826165       16.8225233848  HOAC      17              0.0000000000
      9032       474  HOAC      O1            -25.1980611405        4.7167352945       13.8493441626  HOAC      17              0.0000000000
      9033       474  HOAC      DO1           -25.1929523755        4.7253387844       13.8558075823  HOAC      17              0.0000000000
      9034       474  HOAC      O2            -23.5539188024        5.8775636360       14.9225712317  HOAC      17              0.0000000000
      9035       474  HOAC      DO2           -23.5835881813        5.8766814685       14.9504178302  HOAC      17              0.0000000000
      9036       474  HOAC      H             -23.2385349167        6.0398630320       14.0208213159  HOAC      17              0.0000000000
      9037       474  HOAC      LPO11         -25.0047930631        4.8760936789       13.6842612877  HOAC      17              0.0000000000
      9038       474  HOAC      LPO12         -25.3961432020        4.5544244018       14.0056089090  HOAC      17              0.0000000000
      9039       474  HOAC      LPO21         -23.6504827882        6.2137782513       14.9109467280  HOAC      17              0.0000000000
      9040       474  HOAC      LPO22         -23.2588427781        5.6919781669       14.9540064599  HOAC      17              0.0000000000
      9041       475  HOAC      C1            -31.7897433898      -29.8256888622      -29.7774305521  HOAC      18              0.0000000000
      9042       475  HOAC      DC1           -31.7867645784      -29.8203035704      -29.7764911451  HOAC      18              0.0000000000
      9043       475  HOAC      C2            -31.4480813249      -30.9791220531      -30.6505773989  HOAC      18              0.0000000000
      9044       475  HOAC      DC2           -31.4637813029      -30.9574187061      -30.6252833805  HOAC      18              0.0000000000
      9045       475  HOAC      H1            -31.8005309075      -31.9224947485      -30.1813778144  HOAC      18              0.0000000000
      9046       475  HOAC      H2            -30.3489409765      -31.0406903986      -30.8003132781  HOAC      18              0.0000000000
      9047       475  HOAC      H3            -31.9354019198      -30.8742590635      -31.6434738644  HOAC      18              0.0000000000
      9048       475  HOAC      O1            -30.9965487207      -29.0725006552      -29.2286906346  HOAC      18              0.0000000000
      9049       475  HOAC      DO1           -31.0248128941      -29.0596583303      -29.2232548364  HOAC      18              0.0000000000
      9050       475  HOAC      O2            -33.1420377213      -29.6731956502      -29.6449251247  HOAC      18              0.0000000000
      9051       475  HOAC      DO2           -33.1438291542      -29.6766424381      -29.6553827186  HOAC      18              0.0000000000
      9052       475  HOAC      H             -33.2701191241      -28.9330975682      -29.0327070400  HOAC      18              0.0000000000
      9053       475  HOAC      LPO11         -31.2215444114      -28.9147903332      -29.1082564471  HOAC      18              0.0000000000
      9054       475  HOAC      LPO12         -30.7647657869      -29.2237660632      -29.3444293401  HOAC      18              0.0000000000
      9055       475  HOAC      LPO21         -33.2675775558      -29.4553697743      -29.8884238674  HOAC      18              0.0000000000
      9056       475  HOAC      LPO22         -33.2651594923      -29.8718760686      -29.3844119372  HOAC      18              0.0000000000
      9057       476  HOAC      C1             35.4157666289       10.1791293414       27.1035322026  HOAC      19              0.0000000000
      9058       476  HOAC      DC1            35.4155191717       10.1851577918       27.1137794497  HOAC      19              0.0000000000
      9059       476  HOAC      C2             35.8660670160        9.0734072611       26.2056172391  HOAC      19              0.0000000000
      9060       476  HOAC      DC2            35.8445163883        9.0985630897       26.2144029314  HOAC      19              0.0000000000
      9061       476  HOAC      H1             35.0565334999        8.3177436506       26.1164601021  HOAC      19              0.0000000000
      9062       476  HOAC      H2             36.7592764551        8.5320005095       26.5842683023  HOAC      19              0.0000000000
      9063       476  HOAC      H3             36.1073510085        9.4771489511       25.1990906957  HOAC      19              0.0000000000
      9064       476  HOAC      O1             35.8121271592       10.4904713825       28.2252076120  HOAC      19              0.0000000000
      9065       476  HOAC      DO1            35.8012675441       10.5178194398       28.2141124220  HOAC      19              0.0000000000
      9066       476  HOAC      O2             34.3975996513       10.8567777273       26.4992625432  HOAC      19              0.0000000000
      9067       476  HOAC      DO2            34.3964361550       10.8531550795       26.4937722606  HOAC      19              0.0000000000
      9068       476  HOAC      H              34.1068696928       11.5175671959       27.1456326921  HOAC      19              0.0000000000
      9069       476  HOAC      LPO11          35.6106150974       10.7121817822       28.2406150004  HOAC      19              0.0000000000
      9070       476  HOAC      LPO12          36.0170143751       10.2714121736       28.2193516978  HOAC      19              0.0000000000
      9071       476  HOAC      LPO21          34.5198962974       11.1295349316       26.3171992634  HOAC      19              0.0000000000
      9072       476  HOAC      LPO22          34.0901177833       10.7015604570       26.5614115561  HOAC      19              0.0000000000
      9073       477  HOAC      C1             18.9973986531      -17.8441612748      -25.1618688097  HOAC      20              0.0000000000
      9074       477  HOAC      DC1            18.9855410442      -17.8542831492      -25.1580993547  HOAC      20              0.0000000000
      9075       477  HOAC      C2             17.9744990157      -18.7105978786      -25.8395150436  HOAC      20              0.0000000000
      9076       477  HOAC      DC2            17.9770506569      -18.7023753292      -25.8338001180  HOAC      20              0.0000000000
      9077       477  HOAC      H1             16.9546135735      -18.4015933298      -25.5253958407  HOAC      20              0.0000000000
      9078       477  HOAC      H2             18.1288035308      -19.7753010175      -25.5621734773  HOAC      20              0.0000000000
      9079       477  HOAC      H3             18.0288839026      -18.6019139040      -26.9438479093  HOAC      20              0.0000000000
      9080       477  HOAC      O1             19.8214618406      -18.2147782713      -24.3360616837  HOAC      20              0.0000000000
      9081       477  HOAC      DO1            19.8023648654      -18.1893117406      -24.3315343625  HOAC      20              0.0000000000
      9082       477  HOAC      O2             18.8138166497      -16.5358036136      -25.4861282509  HOAC      20              0.0000000000
      9083       477  HOAC      DO2            18.7995472538      -16.5507060367      -25.4912843589  HOAC      20              0.0000000000
      9084       477  HOAC      H              19.5069841296      -16.0279594876      -25.0382731533  HOAC      20              0.0000000000
      9085       477  HOAC      LPO11          19.9073100975      -17.9315652404      -24.2868635546  HOAC      20              0.0000000000
      9086       477  HOAC      LPO12          19.7426630135      -18.5011617369      -24.3781954643  HOAC      20              0.0000000000
      9087       477  HOAC      LPO21          18.9874294761      -16.4541707974      -25.7788647704  HOAC      20              0.0000000000
      9088       477  HOAC      LPO22          18.5974743724      -16.3801163878      -25.2592857797  HOAC      20              0.0000000000
      9089       478  HOAC      C1             30.9619457365        3.8683116519       -6.2965297113  HOAC      21              0.0000000000
      9090       478  HOAC      DC1            30.9661277718        3.8516076644       -6.3106451217  HOAC      21              0.0000000000
      9091       478  HOAC      C2             29.4998744694        3.6456777004       -6.3298861264  HOAC      21              0.0000000000
      9092       478  HOAC      DC2            29.5314785753        3.6358130620       -6.3428099612  HOAC      21              0.0000000000
      9093       478  HOAC      H1             29.0777932722        3.6705627509       -5.3024868869  HOAC      21              0.0000000000
      9094       478  HOAC      H2             29.3043373538        2.6410895759       -6.7621926590  HOAC      21              0.0000000000
      9095       478  HOAC      H3             28.9934302245        4.4148739609       -6.9513137894  HOAC      21              0.0000000000
      9096       478  HOAC      O1             31.7805780627        3.0864965335       -6.7648945143  HOAC      21              0.0000000000
      9097       478  HOAC      DO1            31.7889773585        3.0971630195       -6.7620778757  HOAC      21              0.0000000000
      9098       478  HOAC      O2             31.3097368964        5.0632874554       -5.7534836096  HOAC      21              0.0000000000
      9099       478  HOAC      DO2            31.3099551954        5.0569595344       -5.7867326497  HOAC      21              0.0000000000
      9100       478  HOAC      H              32.2655150722        5.0707032442       -5.5941283938  HOAC      21              0.0000000000
      9101       478  HOAC      LPO11          32.0053306464        3.2736916057       -6.6982290727  HOAC      21              0.0000000000
      9102       478  HOAC      LPO12          31.5628229311        2.8926187131       -6.8355634140  HOAC      21              0.0000000000
      9103       478  HOAC      LPO21          31.3852411640        5.2966549511       -6.0031608363  HOAC      21              0.0000000000
      9104       478  HOAC      LPO22          31.2872933882        5.0530398219       -5.4043542998  HOAC      21              0.0000000000
      9105       479  HOAC      C1              8.1393622838      -17.5067963247      -31.0552700326  HOAC      22              0.0000000000
      9106       479  HOAC      DC1             8.1405142926      -17.5175292156      -31.0488239460  HOAC      22              0.0000000000
      9107       479  HOAC      C2              8.4709081478      -18.9478272839      -31.2504146213  HOAC      22              0.0000000000
      9108       479  HOAC      DC2             8.4601362602      -18.9375268446      -31.2529751313  HOAC      22              0.0000000000
      9109       479  HOAC      H1              7.5393553726      -19.5532437705      -31.2515574467  HOAC      22              0.0000000000
      9110       479  HOAC      H2              9.1353772868      -19.3060893891      -30.4352765794  HOAC      22              0.0000000000
      9111       479  HOAC      H3              8.9863811848      -19.0736372852      -32.2265193247  HOAC      22              0.0000000000
      9112       479  HOAC      O1              8.5052312499      -16.8217646494      -30.1149168675  HOAC      22              0.0000000000
      9113       479  HOAC      DO1             8.4849053851      -16.8275264124      -30.1266116221  HOAC      22              0.0000000000
      9114       479  HOAC      O2              7.2881041834      -17.0543222166      -32.0206682904  HOAC      22              0.0000000000
      9115       479  HOAC      DO2             7.2736018880      -17.0851142362      -32.0111814889  HOAC      22              0.0000000000
      9116       479  HOAC      H               7.2393189659      -16.0909286998      -31.9287230110  HOAC      22              0.0000000000
      9117       479  HOAC      LPO11           8.3420442980      -16.5900951375      -30.2134016680  HOAC      22              0.0000000000
      9118       479  HOAC      LPO12           8.6715595736      -17.0475524405      -30.0083581412  HOAC      22              0.0000000000
      9119       479  HOAC      LPO21           7.4607959137      -16.9858316800      -32.3172936647  HOAC      22              0.0000000000
      9120       479  HOAC      LPO22           6.9580141916      -17.0507019176      -31.9043605488  HOAC      22              0.0000000000
      9121       480  HOAC      C1            -25.1384363541      -13.3402852519      -36.9175182656  HOAC      23              0.0000000000
      9122       480  HOAC      DC1           -25.1348082341      -13.3452264917      -36.9195213431  HOAC      23              0.0000000000
      9123       480  HOAC      C2            -26.4103424992      -12.5958793922      -36.8922612606  HOAC      23              0.0000000000
      9124       480  HOAC      DC2           -26.3818612923      -12.6265218841      -36.9047160770  HOAC      23              0.0000000000
      9125       480  HOAC      H1            -27.2010487463      -13.1484819535      -37.4433828805  HOAC      23              0.0000000000
      9126       480  HOAC      H2            -26.2802572998      -11.5905382906      -37.3468909036  HOAC      23              0.0000000000
      9127       480  HOAC      H3            -26.7229040951      -12.4536524220      -35.8356640154  HOAC      23              0.0000000000
      9128       480  HOAC      O1            -24.0642046342      -12.9065493097      -37.3039271831  HOAC      23              0.0000000000
      9129       480  HOAC      DO1           -24.0651169410      -12.9390367250      -37.2931943738  HOAC      23              0.0000000000
      9130       480  HOAC      O2            -25.3009464370      -14.6319488134      -36.5102545673  HOAC      23              0.0000000000
      9131       480  HOAC      DO2           -25.3147294791      -14.6362595947      -36.5111553991  HOAC      23              0.0000000000
      9132       480  HOAC      H             -24.4420221889      -15.0662018376      -36.6226576229  HOAC      23              0.0000000000
      9133       480  HOAC      LPO11         -23.9345820311      -13.1734655708      -37.2597266137  HOAC      23              0.0000000000
      9134       480  HOAC      LPO12         -24.1846162613      -12.6359139894      -37.3514410072  HOAC      23              0.0000000000
      9135       480  HOAC      LPO21         -25.2382226243      -14.6635874235      -36.1673774440  HOAC      23              0.0000000000
      9136       480  HOAC      LPO22         -25.4043748566      -14.8346408168      -36.7761840950  HOAC      23              0.0000000000
      9137       481  HOAC      C1             -1.7812391932        7.3189924362      -14.3421093059  HOAC      24              0.0000000000
      9138       481  HOAC      DC1            -1.7698957724        7.3157152237      -14.3596727058  HOAC      24              0.0000000000
      9139       481  HOAC      C2             -1.5900874000        6.5189292608      -15.5880556585  HOAC      24              0.0000000000
      9140       481  HOAC      DC2            -1.5800336010        6.5301516617      -15.6011394630  HOAC      24              0.0000000000
      9141       481  HOAC      H1             -1.8714157541        5.4621571806      -15.3920757404  HOAC      24              0.0000000000
      9142       481  HOAC      H2             -0.5240266039        6.5668038779      -15.8971566130  HOAC      24              0.0000000000
      9143       481  HOAC      H3             -2.2408342532        6.9253348887      -16.3916003059  HOAC      24              0.0000000000
      9144       481  HOAC      O1             -0.9111848752        7.9779688215      -13.7934055941  HOAC      24              0.0000000000
      9145       481  HOAC      DO1            -0.9316265606        7.9727557685      -13.8002909693  HOAC      24              0.0000000000
      9146       481  HOAC      O2             -3.0672688448        7.2689438843      -13.9332228760  HOAC      24              0.0000000000
      9147       481  HOAC      DO2            -3.0520873268        7.2632982736      -13.9556666407  HOAC      24              0.0000000000
      9148       481  HOAC      H              -3.1683396109        7.8014425928      -13.1299851617  HOAC      24              0.0000000000
      9149       481  HOAC      LPO11          -1.1076337050        8.0773647769      -13.5896206553  HOAC      24              0.0000000000
      9150       481  HOAC      LPO12          -0.7072780530        7.8842215259      -13.9924871162  HOAC      24              0.0000000000
      9151       481  HOAC      LPO21          -3.2557095354        7.5233743189      -14.0824048457  HOAC      24              0.0000000000
      9152       481  HOAC      LPO22          -3.1191803555        6.9984667046      -13.7172430383  HOAC      24              0.0000000000
      9153       482  HOAC      C1             21.3267255376        0.0524527007        8.8265235548  HOAC      25              0.0000000000
      9154       482  HOAC      DC1            21.3277933006        0.0646854447        8.8005593863  HOAC      25              0.0000000000
      9155       482  HOAC      C2             20.3073302658       -0.2059598628        9.8679991829  HOAC      25              0.0000000000
      9156       482  HOAC      DC2            20.3334256400       -0.1977326513        9.8233238482  HOAC      25              0.0000000000
      9157       482  HOAC      H1             20.3161935316       -1.2731644381       10.1767334327  HOAC      25              0.0000000000
      9158       482  HOAC      H2             19.2883488731        0.0571044527        9.5119162014  HOAC      25              0.0000000000
      9159       482  HOAC      H3             20.5277089452        0.4032937755       10.7705313112  HOAC      25              0.0000000000
      9160       482  HOAC      O1             21.1616738848        0.6940586054        7.7894218190  HOAC      25              0.0000000000
      9161       482  HOAC      DO1            21.1840572250        0.6931028875        7.7758917872  HOAC      25              0.0000000000
      9162       482  HOAC      O2             22.4999893083       -0.5805599080        9.1145289130  HOAC      25              0.0000000000
      9163       482  HOAC      DO2            22.4850882038       -0.6060049688        9.0950704888  HOAC      25              0.0000000000
      9164       482  HOAC      H              23.1997696959       -0.2157207862        8.5522471114  HOAC      25              0.0000000000
      9165       482  HOAC      LPO11          21.4409605579        0.6310779408        7.6997982166  HOAC      25              0.0000000000
      9166       482  HOAC      LPO12          20.8809827994        0.7624986475        7.8702207990  HOAC      25              0.0000000000
      9167       482  HOAC      LPO21          22.6703117604       -0.4165008499        9.3725500124  HOAC      25              0.0000000000
      9168       482  HOAC      LPO22          22.5391311474       -0.8668738277        8.9170643445  HOAC      25              0.0000000000
      9169       483  HOAC      C1              7.7784033645       28.2680724468       -4.5862939258  HOAC      26              0.0000000000
      9170       483  HOAC      DC1             7.7781928033       28.2690433703       -4.5857413573  HOAC      26              0.0000000000
      9171       483  HOAC      C2              7.4525448641       27.8230365371       -3.2109411300  HOAC      26              0.0000000000
      9172       483  HOAC      DC2             7.4651450113       27.8378304559       -3.2475160934  HOAC      26              0.0000000000
      9173       483  HOAC      H1              6.8031464539       26.9227059119       -3.2557459546  HOAC      26              0.0000000000
      9174       483  HOAC      H2              6.8890054604       28.6060649322       -2.6599321704  HOAC      26              0.0000000000
      9175       483  HOAC      H3              8.3747509891       27.5644707431       -2.6479130727  HOAC      26              0.0000000000
      9176       483  HOAC      O1              7.3216997393       29.2509045653       -5.1513670440  HOAC      26              0.0000000000
      9177       483  HOAC      DO1             7.3347701529       29.2338225281       -5.1577835506  HOAC      26              0.0000000000
      9178       483  HOAC      O2              8.6583893097       27.4181570737       -5.1796079394  HOAC      26              0.0000000000
      9179       483  HOAC      DO2             8.6683620975       27.4124562112       -5.1634445493  HOAC      26              0.0000000000
      9180       483  HOAC      H               8.7957295454       27.7452827033       -6.0813215758  HOAC      26              0.0000000000
      9181       483  HOAC      LPO11           7.4784501036       29.1877428180       -5.3992378107  HOAC      26              0.0000000000
      9182       483  HOAC      LPO12           7.1610365693       29.3224867213       -4.9083375381  HOAC      26              0.0000000000
      9183       483  HOAC      LPO21           8.9882285693       27.5214488368       -5.1245000956  HOAC      26              0.0000000000
      9184       483  HOAC      LPO22           8.4906883407       27.1526149408       -5.3340869368  HOAC      26              0.0000000000
      9185       484  HOAC      C1             19.9717889360       19.6934065736      -28.8661886257  HOAC      27              0.0000000000
      9186       484  HOAC      DC1            19.9688601129       19.6935291015      -28.8595781938  HOAC      27              0.0000000000
      9187       484  HOAC      C2             18.5722364723       19.4351463590      -28.4622779563  HOAC      27              0.0000000000
      9188       484  HOAC      DC2            18.5926517121       19.4459641192      -28.4735504164  HOAC      27              0.0000000000
      9189       484  HOAC      H1             17.9682001181       20.3665078544      -28.5072985041  HOAC      27              0.0000000000
      9190       484  HOAC      H2             18.5273285639       19.0188368188      -27.4332052441  HOAC      27              0.0000000000
      9191       484  HOAC      H3             18.1604923552       18.6836593144      -29.1694236300  HOAC      27              0.0000000000
      9192       484  HOAC      O1             20.9626390853       19.3199871005      -28.2593406681  HOAC      27              0.0000000000
      9193       484  HOAC      DO1            20.9594544921       19.3232046669      -28.2822478751  HOAC      27              0.0000000000
      9194       484  HOAC      O2             20.0250995477       20.3424172541      -30.0622952975  HOAC      27              0.0000000000
      9195       484  HOAC      DO2            20.0072234381       20.3351212640      -30.0560669253  HOAC      27              0.0000000000
      9196       484  HOAC      H              20.9584796433       20.4474865069      -30.3004613093  HOAC      27              0.0000000000
      9197       484  HOAC      LPO11          21.1416401332       19.4290856332      -28.4739475995  HOAC      27              0.0000000000
      9198       484  HOAC      LPO12          20.7921395395       19.2076846258      -28.0395269764  HOAC      27              0.0000000000
      9199       484  HOAC      LPO21          20.0167687561       20.1150104412      -30.3282214891  HOAC      27              0.0000000000
      9200       484  HOAC      LPO22          20.0318043200       20.6892712659      -30.0159558922  HOAC      27              0.0000000000
      9201       485  HOAC      C1            -21.4191471944       35.4300634276       32.2218125993  HOAC      28              0.0000000000
      9202       485  HOAC      DC1           -21.4256435351       35.4312506134       32.2246003154  HOAC      28              0.0000000000
      9203       485  HOAC      C2            -20.4653659937       35.1365638622       33.3242662113  HOAC      28              0.0000000000
      9204       485  HOAC      DC2           -20.4804785094       35.1431829974       33.2930012276  HOAC      28              0.0000000000
      9205       485  HOAC      H1            -20.0442883737       34.1168214422       33.1933462592  HOAC      28              0.0000000000
      9206       485  HOAC      H2            -20.9761169657       35.1841882075       34.3097540944  HOAC      28              0.0000000000
      9207       485  HOAC      H3            -19.6308364595       35.8698651797       33.3119928493  HOAC      28              0.0000000000
      9208       485  HOAC      O1            -22.6170085383       35.6640287877       32.3325696552  HOAC      28              0.0000000000
      9209       485  HOAC      DO1           -22.6101484908       35.6605693248       32.3027656214  HOAC      28              0.0000000000
      9210       485  HOAC      O2            -20.7912935081       35.3916164917       31.0108761701  HOAC      28              0.0000000000
      9211       485  HOAC      DO2           -20.7852204278       35.3953522919       31.0187844577  HOAC      28              0.0000000000
      9212       485  HOAC      H             -21.4742451973       35.5244756338       30.3364234744  HOAC      28              0.0000000000
      9213       485  HOAC      LPO11         -22.6445417270       35.6913151685       32.0350845683  HOAC      28              0.0000000000
      9214       485  HOAC      LPO12         -22.5997105343       35.6387415354       32.6310011112  HOAC      28              0.0000000000
      9215       485  HOAC      LPO21         -20.6805933894       35.7102360650       30.9174574824  HOAC      28              0.0000000000
      9216       485  HOAC      LPO22         -20.7771040486       35.0642290181       30.8879286148  HOAC      28              0.0000000000
      9217       486  HOAC      C1            -29.6940754472       17.6682169164       -3.1126803612  HOAC      29              0.0000000000
      9218       486  HOAC      DC1           -29.6896048279       17.6690758191       -3.1101045761  HOAC      29              0.0000000000
      9219       486  HOAC      C2            -31.1571263382       17.5416371204       -3.1861735597  HOAC      29              0.0000000000
      9220       486  HOAC      DC2           -31.1306055783       17.5603889864       -3.1966106509  HOAC      29              0.0000000000
      9221       486  HOAC      H1            -31.6305297761       18.3790385438       -2.6303237225  HOAC      29              0.0000000000
      9222       486  HOAC      H2            -31.4857459696       16.5746933135       -2.7487380649  HOAC      29              0.0000000000
      9223       486  HOAC      H3            -31.4636301752       17.5648199826       -4.2538059658  HOAC      29              0.0000000000
      9224       486  HOAC      O1            -28.9366366472       16.8448105445       -2.6302322949  HOAC      29              0.0000000000
      9225       486  HOAC      DO1           -28.9170631256       16.8728429472       -2.6355683803  HOAC      29              0.0000000000
      9226       486  HOAC      O2            -29.2528177123       18.8435251284       -3.6557096476  HOAC      29              0.0000000000
      9227       486  HOAC      DO2           -29.2567066397       18.8396717572       -3.6650230360  HOAC      29              0.0000000000
      9228       486  HOAC      H             -28.3041499718       18.8961657027       -3.4653954650  HOAC      29              0.0000000000
      9229       486  HOAC      LPO11         -28.6998319273       17.0177198215       -2.6936823266  HOAC      29              0.0000000000
      9230       486  HOAC      LPO12         -29.1669315508       16.6648244920       -2.5626358579  HOAC      29              0.0000000000
      9231       486  HOAC      LPO21         -29.1529149425       18.7977913914       -3.9880165267  HOAC      29              0.0000000000
      9232       486  HOAC      LPO22         -29.2827246426       19.1060929707       -3.4262239102  HOAC      29              0.0000000000
      9233       487  HOAC      C1             -7.9759999007      -35.7285844359       10.4303406927  HOAC      30              0.0000000000
      9234       487  HOAC      DC1            -7.9748005937      -35.7290463406       10.4191433112  HOAC      30              0.0000000000
      9235       487  HOAC      C2             -7.1291334559      -36.7272865408        9.7182221483  HOAC      30              0.0000000000
      9236       487  HOAC      DC2            -7.1593448372      -36.7259806223        9.7176598839  HOAC      30              0.0000000000
      9237       487  HOAC      H1             -6.7674988449      -37.4879139546       10.4427822542  HOAC      30              0.0000000000
      9238       487  HOAC      H2             -6.2529590922      -36.2288165594        9.2511384727  HOAC      30              0.0000000000
      9239       487  HOAC      H3             -7.7277918959      -37.2298336595        8.9286808467  HOAC      30              0.0000000000
      9240       487  HOAC      O1             -7.8051413056      -34.5170369156       10.4715545470  HOAC      30              0.0000000000
      9241       487  HOAC      DO1            -7.8342554627      -34.5270273620       10.4825827785  HOAC      30              0.0000000000
      9242       487  HOAC      O2             -9.0673772646      -36.3397139063       10.9735622122  HOAC      30              0.0000000000
      9243       487  HOAC      DO2            -9.0644635549      -36.3480381278       10.9594802728  HOAC      30              0.0000000000
      9244       487  HOAC      H              -9.5915940932      -35.6405180351       11.3922301596  HOAC      30              0.0000000000
      9245       487  HOAC      LPO11          -8.0630306046      -34.4804407506       10.6203961747  HOAC      30              0.0000000000
      9246       487  HOAC      LPO12          -7.5457905683      -34.5432701148       10.3230654418  HOAC      30              0.0000000000
      9247       487  HOAC      LPO21          -9.3293311269      -36.3563201967       10.7420359606  HOAC      30              0.0000000000
      9248       487  HOAC      LPO22          -9.0015201336      -36.4451002337       11.3007572004  HOAC      30              0.0000000000
      9249       488  HOAC      C1             20.2383037780       26.8744709128        1.8916978507  HOAC      31              0.0000000000
      9250       488  HOAC      DC1            20.2403220478       26.8719742963        1.8993063399  HOAC      31              0.0000000000
      9251       488  HOAC      C2             20.0605810884       28.1435977043        2.6484743065  HOAC      31              0.0000000000
      9252       488  HOAC      DC2            20.1000341971       28.1290162109        2.6443577336  HOAC      31              0.0000000000
      9253       488  HOAC      H1             20.9806422702       28.3822412744        3.2236765916  HOAC      31              0.0000000000
      9254       488  HOAC      H2             19.2015473945       28.0518101054        3.3470136035  HOAC      31              0.0000000000
      9255       488  HOAC      H3             19.8489108449       28.9716379308        1.9386390485  HOAC      31              0.0000000000
      9256       488  HOAC      O1             19.5299390400       25.8766281555        1.9409136366  HOAC      31              0.0000000000
      9257       488  HOAC      DO1            19.5501947213       25.8775866913        1.9245410056  HOAC      31              0.0000000000
      9258       488  HOAC      O2             21.3781012052       26.9404255937        1.1450349313  HOAC      31              0.0000000000
      9259       488  HOAC      DO2            21.3816660755       26.9629638952        1.1554780245  HOAC      31              0.0000000000
      9260       488  HOAC      H              21.4498132607       26.0994326788        0.6690629804  HOAC      31              0.0000000000
      9261       488  HOAC      LPO11          19.7130688500       25.7309402284        1.7531944298  HOAC      31              0.0000000000
      9262       488  HOAC      LPO12          19.3407525676       26.0137843244        2.1290536483  HOAC      31              0.0000000000
      9263       488  HOAC      LPO21          21.3131045836       27.0780253926        0.8298496928  HOAC      31              0.0000000000
      9264       488  HOAC      LPO22          21.6537336864       26.8254111568        1.3275134631  HOAC      31              0.0000000000
      9265       489  HOAC      C1            -28.3621569556       31.1161692335       -9.6525104462  HOAC      32              0.0000000000
      9266       489  HOAC      DC1           -28.3726681260       31.1289645146       -9.6464664024  HOAC      32              0.0000000000
      9267       489  HOAC      C2            -27.2840841850       31.6389153352      -10.5126054324  HOAC      32              0.0000000000
      9268       489  HOAC      DC2           -27.3204314154       31.6314956926      -10.4911307004  HOAC      32              0.0000000000
      9269       489  HOAC      H1            -26.3086941063       31.2118627517      -10.1954914360  HOAC      32              0.0000000000
      9270       489  HOAC      H2            -27.2026355854       32.7390501980      -10.3807327292  HOAC      32              0.0000000000
      9271       489  HOAC      H3            -27.4611098924       31.3827458209      -11.5790762847  HOAC      32              0.0000000000
      9272       489  HOAC      O1            -29.1341174217       31.7958100265       -8.9825924519  HOAC      32              0.0000000000
      9273       489  HOAC      DO1           -29.1449467322       31.7797128036       -8.9797960666  HOAC      32              0.0000000000
      9274       489  HOAC      O2            -28.4179299576       29.7579129579       -9.7063898747  HOAC      32              0.0000000000
      9275       489  HOAC      DO2           -28.4117847491       29.7702723506       -9.7120155380  HOAC      32              0.0000000000
      9276       489  HOAC      H             -29.1179456266       29.4479547894       -9.1123654670  HOAC      32              0.0000000000
      9277       489  HOAC      LPO11         -29.2759102343       31.5495095378       -8.8865150478  HOAC      32              0.0000000000
      9278       489  HOAC      LPO12         -28.9989102659       32.0479085853       -9.0729547319  HOAC      32              0.0000000000
      9279       489  HOAC      LPO21         -28.6346972309       29.6518074497       -9.9598727546  HOAC      32              0.0000000000
      9280       489  HOAC      LPO22         -28.2028434700       29.6146561109       -9.4703490337  HOAC      32              0.0000000000
      9281       490  HOAC      C1             35.7858092304       24.7360567765       23.3779022853  HOAC      33              0.0000000000
      9282       490  HOAC      DC1            35.7885662335       24.7312283110       23.3708638357  HOAC      33              0.0000000000
      9283       490  HOAC      C2             34.3934294458       25.2215604780       23.4890967484  HOAC      33              0.0000000000
      9284       490  HOAC      DC2            34.4249439573       25.1997972019       23.4610964062  HOAC      33              0.0000000000
      9285       490  HOAC      H1             34.3646407383       26.0716539406       24.2038227904  HOAC      33              0.0000000000
      9286       490  HOAC      H2             33.7193288671       24.4192742263       23.8582121530  HOAC      33              0.0000000000
      9287       490  HOAC      H3             34.0278270864       25.5836162132       22.5044284997  HOAC      33              0.0000000000
      9288       490  HOAC      O1             36.1863703009       23.6017737466       23.6035384563  HOAC      33              0.0000000000
      9289       490  HOAC      DO1            36.2107795739       23.6230015816       23.5906488305  HOAC      33              0.0000000000
      9290       490  HOAC      O2             36.6152388923       25.7164997882       22.9095606597  HOAC      33              0.0000000000
      9291       490  HOAC      DO2            36.6108465395       25.7182194229       22.8997958206  HOAC      33              0.0000000000
      9292       490  HOAC      H              37.5016017748       25.3259081486       22.8819923539  HOAC      33              0.0000000000
      9293       490  HOAC      LPO11          36.4638444597       23.6770708606       23.5178737856  HOAC      33              0.0000000000
      9294       490  HOAC      LPO12          35.9123232309       23.5167720231       23.6911336073  HOAC      33              0.0000000000
      9295       490  HOAC      LPO21          36.6326529706       25.7089052756       22.5600766497  HOAC      33              0.0000000000
      9296       490  HOAC      LPO22          36.7404713210       25.9103358156       23.1727040299  HOAC      33              0.0000000000
      9297       491  HOAC      C1             -4.7635783608       -9.8903278830       20.6551411105  HOAC      34              0.0000000000
      9298       491  HOAC      DC1            -4.7668466306       -9.9019000379       20.6608106870  HOAC      34              0.0000000000
      9299       491  HOAC      C2             -5.8948438471       -9.8258591793       19.6972448095  HOAC      34              0.0000000000
      9300       491  HOAC      DC2            -5.8709553720       -9.8514803484       19.7198179525  HOAC      34              0.0000000000
      9301       491  HOAC      H1             -6.1195863926       -8.7632417818       19.4634584646  HOAC      34              0.0000000000
      9302       491  HOAC      H2             -6.8040248684      -10.2926267422       20.1329498848  HOAC      34              0.0000000000
      9303       491  HOAC      H3             -5.6274946251      -10.3502958760       18.7550072885  HOAC      34              0.0000000000
      9304       491  HOAC      O1             -4.8064174818      -10.4001161560       21.7655943709  HOAC      34              0.0000000000
      9305       491  HOAC      DO1            -4.7815067487      -10.4059079422       21.7511665020  HOAC      34              0.0000000000
      9306       491  HOAC      O2             -3.6110606721       -9.3912096945       20.1288215334  HOAC      34              0.0000000000
      9307       491  HOAC      DO2            -3.6162979032       -9.4020189931       20.1226582144  HOAC      34              0.0000000000
      9308       491  HOAC      H              -2.9409458903       -9.4442606722       20.8267418534  HOAC      34              0.0000000000
      9309       491  HOAC      LPO11          -4.5130833199      -10.3512068995       21.8051285853  HOAC      34              0.0000000000
      9310       491  HOAC      LPO12          -5.1001185471      -10.4533915875       21.7355708366  HOAC      34              0.0000000000
      9311       491  HOAC      LPO21          -3.4251945363       -9.6437317241       19.9733017464  HOAC      34              0.0000000000
      9312       491  HOAC      LPO22          -3.5909293796       -9.0452566139       20.1779254749  HOAC      34              0.0000000000
      9313       492  HOAC      C1             -7.3067288519      -12.0008855946      -24.8666640599  HOAC      35              0.0000000000
      9314       492  HOAC      DC1            -7.3010392857      -12.0101624959      -24.8666393184  HOAC      35              0.0000000000
      9315       492  HOAC      C2             -8.1470189274      -12.8718060158      -25.7088973939  HOAC      35              0.0000000000
      9316       492  HOAC      DC2            -8.1358719791      -12.8538278502      -25.6982703233  HOAC      35              0.0000000000
      9317       492  HOAC      H1             -9.1726910020      -12.8738346854      -25.2819153323  HOAC      35              0.0000000000
      9318       492  HOAC      H2             -7.7406747367      -13.9058298973      -25.7087920465  HOAC      35              0.0000000000
      9319       492  HOAC      H3             -8.1744572163      -12.4964005960      -26.7541910911  HOAC      35              0.0000000000
      9320       492  HOAC      O1             -6.2761890984      -12.3501281359      -24.3148182137  HOAC      35              0.0000000000
      9321       492  HOAC      DO1            -6.2786734115      -12.3239552859      -24.3208811482  HOAC      35              0.0000000000
      9322       492  HOAC      O2             -7.7961662977      -10.7328630811      -24.7897892622  HOAC      35              0.0000000000
      9323       492  HOAC      DO2            -7.8020992316      -10.7453529012      -24.7946756286  HOAC      35              0.0000000000
      9324       492  HOAC      H              -7.1872435577      -10.2237037602      -24.2339737509  HOAC      35              0.0000000000
      9325       492  HOAC      LPO11          -6.2357749303      -12.0742441129      -24.2041172611  HOAC      35              0.0000000000
      9326       492  HOAC      LPO12          -6.3077583343      -12.6290096430      -24.4207827754  HOAC      35              0.0000000000
      9327       492  HOAC      LPO21          -7.6727493041      -10.5353371401      -25.0510396178  HOAC      35              0.0000000000
      9328       492  HOAC      LPO22          -8.0181397465      -10.7007811088      -24.5210914113  HOAC      35              0.0000000000
      9329       493  HOAC      C1              5.6243846067      -36.0989039775      -36.7269715076  HOAC      36              0.0000000000
      9330       493  HOAC      DC1             5.6263271046      -36.0934194020      -36.7299427923  HOAC      36              0.0000000000
      9331       493  HOAC      C2              4.2943085314      -36.4330776456      -36.1711515358  HOAC      36              0.0000000000
      9332       493  HOAC      DC2             4.3296610411      -36.4379983699      -36.1979104902  HOAC      36              0.0000000000
      9333       493  HOAC      H1              3.6134255512      -36.4549919544      -37.0487842213  HOAC      36              0.0000000000
      9334       493  HOAC      H2              3.9237875629      -35.6625722707      -35.4616751942  HOAC      36              0.0000000000
      9335       493  HOAC      H3              4.2601181809      -37.4267319309      -35.6753661158  HOAC      36              0.0000000000
      9336       493  HOAC      O1              6.1010832433      -34.9810838486      -36.8385021035  HOAC      36              0.0000000000
      9337       493  HOAC      DO1             6.1126227268      -34.9980571973      -36.8505390514  HOAC      36              0.0000000000
      9338       493  HOAC      O2              6.2218564535      -37.1869549756      -37.2683038353  HOAC      36              0.0000000000
      9339       493  HOAC      DO2             6.2000174018      -37.1884729943      -37.2724605605  HOAC      36              0.0000000000
      9340       493  HOAC      H               7.1561540237      -36.9804883483      -37.4213416810  HOAC      36              0.0000000000
      9341       493  HOAC      LPO11           6.3315317695      -35.0894657279      -36.9970796712  HOAC      36              0.0000000000
      9342       493  HOAC      LPO12           5.8747251907      -34.8631101361      -36.6808815617  HOAC      36              0.0000000000
      9343       493  HOAC      LPO21           6.3450924013      -37.3989406627      -37.0185540213  HOAC      36              0.0000000000
      9344       493  HOAC      LPO22           6.1988759879      -37.1812398215      -37.6175018239  HOAC      36              0.0000000000
      9345       494  HOAC      C1             26.0081365512       13.1376552298       10.8095336036  HOAC      37              0.0000000000
      9346       494  HOAC      DC1            26.0109412596       13.1480102524       10.8082149133  HOAC      37              0.0000000000
      9347       494  HOAC      C2             24.5660314202       13.0076832843       10.4346271010  HOAC      37              0.0000000000
      9348       494  HOAC      DC2            24.5919408488       13.0072120433       10.4356848901  HOAC      37              0.0000000000
      9349       494  HOAC      H1             24.4587663423       12.3320815016        9.5591972441  HOAC      37              0.0000000000
      9350       494  HOAC      H2             24.1235020135       13.9978052212       10.1934896393  HOAC      37              0.0000000000
      9351       494  HOAC      H3             23.9950003063       12.5725735358       11.2825209470  HOAC      37              0.0000000000
      9352       494  HOAC      O1             26.7061604748       14.1444483323       10.7396550145  HOAC      37              0.0000000000
      9353       494  HOAC      DO1            26.7196267848       14.1267411653       10.7523075984  HOAC      37              0.0000000000
      9354       494  HOAC      O2             26.4802609799       11.9577009444       11.2948688870  HOAC      37              0.0000000000
      9355       494  HOAC      DO2            26.4638633142       11.9602862208       11.2897141680  HOAC      37              0.0000000000
      9356       494  HOAC      H              27.4198224866       12.0676660359       11.5048518713  HOAC      37              0.0000000000
      9357       494  HOAC      LPO11          26.9402267094       13.9965658298       10.8551702225  HOAC      37              0.0000000000
      9358       494  HOAC      LPO12          26.4780508622       14.3009223541       10.6235434942  HOAC      37              0.0000000000
      9359       494  HOAC      LPO21          26.4397214201       11.9403392452       11.6420793642  HOAC      37              0.0000000000
      9360       494  HOAC      LPO22          26.5971179803       11.7538175034       11.0354927433  HOAC      37              0.0000000000
      9361       495  HOAC      C1             12.7417537465       19.2942724577       29.2342727363  HOAC      38              0.0000000000
      9362       495  HOAC      DC1            12.7337657704       19.2933492790       29.2350931945  HOAC      38              0.0000000000
      9363       495  HOAC      C2             11.4113093548       19.9601427710       29.3019875702  HOAC      38              0.0000000000
      9364       495  HOAC      DC2            11.4172800496       19.9419356404       29.3050563036  HOAC      38              0.0000000000
      9365       495  HOAC      H1             10.8699637591       19.7974467877       28.3455379033  HOAC      38              0.0000000000
      9366       495  HOAC      H2             11.5362805154       21.0529042557       29.4587534703  HOAC      38              0.0000000000
      9367       495  HOAC      H3             10.8166896122       19.5395895781       30.1409651466  HOAC      38              0.0000000000
      9368       495  HOAC      O1             13.8284645666       19.8418572761       29.1754660430  HOAC      38              0.0000000000
      9369       495  HOAC      DO1            13.8231227561       19.8021696122       29.1708959082  HOAC      38              0.0000000000
      9370       495  HOAC      O2             12.6285920851       17.9344404978       29.2355427423  HOAC      38              0.0000000000
      9371       495  HOAC      DO2            12.6177194275       17.9358253184       29.2514857695  HOAC      38              0.0000000000
      9372       495  HOAC      H              13.5269442156       17.6081350544       29.0760146656  HOAC      38              0.0000000000
      9373       495  HOAC      LPO11          13.9676888437       19.5762646808       29.1666811701  HOAC      38              0.0000000000
      9374       495  HOAC      LPO12          13.6985807299       20.1121564440       29.1837454636  HOAC      38              0.0000000000
      9375       495  HOAC      LPO21          12.6682644426       17.8061509940       29.5587576975  HOAC      38              0.0000000000
      9376       495  HOAC      LPO22          12.5570040209       17.8148081029       28.9145081037  HOAC      38              0.0000000000
      9377       496  HOAC      C1             -1.1946399650      -16.3415738077      -33.2243540734  HOAC      39              0.0000000000
      9378       496  HOAC      DC1            -1.1826795022      -16.3513029774      -33.2107429056  HOAC      39              0.0000000000
      9379       496  HOAC      C2             -0.7392518065      -17.5008381642      -32.4056248972  HOAC      39              0.0000000000
      9380       496  HOAC      DC2            -0.7270355542      -17.4985745344      -32.3977859070  HOAC      39              0.0000000000
      9381       496  HOAC      H1             -1.2763665807      -17.4916441376      -31.4331310982  HOAC      39              0.0000000000
      9382       496  HOAC      H2              0.3549241793      -17.4237383607      -32.2291155953  HOAC      39              0.0000000000
      9383       496  HOAC      H3             -0.9703466934      -18.4487410017      -32.9370346867  HOAC      39              0.0000000000
      9384       496  HOAC      O1             -0.4743854782      -15.4235892069      -33.5835279626  HOAC      39              0.0000000000
      9385       496  HOAC      DO1            -0.4939247535      -15.4317526488      -33.5748213516  HOAC      39              0.0000000000
      9386       496  HOAC      O2             -2.5334498475      -16.3952570568      -33.4442739656  HOAC      39              0.0000000000
      9387       496  HOAC      DO2            -2.5198384514      -16.4079351231      -33.4252211024  HOAC      39              0.0000000000
      9388       496  HOAC      H              -2.7806194779      -15.6267805480      -33.9802889179  HOAC      39              0.0000000000
      9389       496  HOAC      LPO11          -0.7085923733      -15.2800530092      -33.7041285025  HOAC      39              0.0000000000
      9390       496  HOAC      LPO12          -0.2340008207      -15.5592516728      -33.4660081268  HOAC      39              0.0000000000
      9391       496  HOAC      LPO21          -2.6051781990      -16.5783546017      -33.7338086485  HOAC      39              0.0000000000
      9392       496  HOAC      LPO22          -2.7085472178      -16.2316987137      -33.1891473709  HOAC      39              0.0000000000
      9393       497  HOAC      C1             -7.4982117676       13.4434536867       21.3134659598  HOAC      40              0.0000000000
      9394       497  HOAC      DC1            -7.5041748375       13.4463772779       21.3226209244  HOAC      40              0.0000000000
      9395       497  HOAC      C2             -8.7634368199       13.6877931744       20.5885186750  HOAC      40              0.0000000000
      9396       497  HOAC      DC2            -8.7408075796       13.7062767473       20.6005751504  HOAC      40              0.0000000000
      9397       497  HOAC      H1             -9.5311936393       14.1158320155       21.2679693491  HOAC      40              0.0000000000
      9398       497  HOAC      H2             -9.1501004400       12.7353796143       20.1669493974  HOAC      40              0.0000000000
      9399       497  HOAC      H3             -8.5645748221       14.4000132818       19.7593519701  HOAC      40              0.0000000000
      9400       497  HOAC      O1             -6.8756861513       12.3942214243       21.3520556734  HOAC      40              0.0000000000
      9401       497  HOAC      DO1            -6.8649854408       12.4249615860       21.3799256745  HOAC      40              0.0000000000
      9402       497  HOAC      O2             -7.0996482647       14.5508355157       22.0124567538  HOAC      40              0.0000000000
      9403       497  HOAC      DO2            -7.1211491465       14.5495669552       22.0306425742  HOAC      40              0.0000000000
      9404       497  HOAC      H              -6.1742361672       14.3857935568       22.2476898333  HOAC      40              0.0000000000
      9405       497  HOAC      LPO11          -6.6741640011       12.5145680770       21.5388858267  HOAC      40              0.0000000000
      9406       497  HOAC      LPO12          -7.0718677888       12.2648736348       21.1655565729  HOAC      40              0.0000000000
      9407       497  HOAC      LPO21          -6.9724372871       14.7954642627       21.7968781292  HOAC      40              0.0000000000
      9408       497  HOAC      LPO22          -7.1645405356       14.5127702102       22.3542754567  HOAC      40              0.0000000000
      9409       498  HOAC      C1            -16.1975356663       29.8862775834       15.3245701404  HOAC      41              0.0000000000
      9410       498  HOAC      DC1           -16.1915203824       29.8747927149       15.3352888440  HOAC      41              0.0000000000
      9411       498  HOAC      C2            -17.4827610024       30.1568469606       16.0274798135  HOAC      41              0.0000000000
      9412       498  HOAC      DC2           -17.4616485462       30.1477637940       16.0185095229  HOAC      41              0.0000000000
      9413       498  HOAC      H1            -17.4919567047       31.2061499746       16.3924450507  HOAC      41              0.0000000000
      9414       498  HOAC      H2            -17.6107373895       29.4784913039       16.8979834880  HOAC      41              0.0000000000
      9415       498  HOAC      H3            -18.3318289891       30.0150283431       15.3251322964  HOAC      41              0.0000000000
      9416       498  HOAC      O1            -15.3565074051       29.0605639830       15.6578857434  HOAC      41              0.0000000000
      9417       498  HOAC      DO1           -15.3468067748       29.0712702988       15.6438660183  HOAC      41              0.0000000000
      9418       498  HOAC      O2            -16.0299226739       30.7092905910       14.2547856613  HOAC      41              0.0000000000
      9419       498  HOAC      DO2           -16.0368560366       30.7055832515       14.2701956361  HOAC      41              0.0000000000
      9420       498  HOAC      H             -15.1917501138       30.4779282170       13.8271184876  HOAC      41              0.0000000000
      9421       498  HOAC      LPO11         -15.1778509839       29.1434111679       15.4315713004  HOAC      41              0.0000000000
      9422       498  HOAC      LPO12         -15.5279736734       28.9706575738       15.8870497817  HOAC      41              0.0000000000
      9423       498  HOAC      LPO21         -16.1758679708       30.5722094497       13.9677164519  HOAC      41              0.0000000000
      9424       498  HOAC      LPO22         -15.8631269548       31.0025891308       14.3478187447  HOAC      41              0.0000000000
      9425       499  HOAC      C1            -17.9502897113       -0.8785019638      -20.7990436042  HOAC      42              0.0000000000
      9426       499  HOAC      DC1           -17.9546391614       -0.8741065511      -20.8000314266  HOAC      42              0.0000000000
      9427       499  HOAC      C2            -19.4214648093       -0.6570115243      -20.7370551616  HOAC      42              0.0000000000
      9428       499  HOAC      DC2           -19.4083035639       -0.6624264633      -20.7406455538  HOAC      42              0.0000000000
      9429       499  HOAC      H1            -19.9392113820       -1.3786230632      -21.4045401992  HOAC      42              0.0000000000
      9430       499  HOAC      H2            -19.6569993227        0.3777728767      -21.0657886970  HOAC      42              0.0000000000
      9431       499  HOAC      H3            -19.7791671259       -0.7976951448      -19.6946645574  HOAC      42              0.0000000000
      9432       499  HOAC      O1            -17.1237455559       -0.0262092646      -21.0912916846  HOAC      42              0.0000000000
      9433       499  HOAC      DO1           -17.1280074295       -0.0380613080      -21.0870381757  HOAC      42              0.0000000000
      9434       499  HOAC      O2            -17.6256212960       -2.1589704543      -20.4808713517  HOAC      42              0.0000000000
      9435       499  HOAC      DO2           -17.6413274625       -2.1531281932      -20.4800328176  HOAC      42              0.0000000000
      9436       499  HOAC      H             -16.6603380660       -2.2423482407      -20.4962801369  HOAC      42              0.0000000000
      9437       499  HOAC      LPO11         -16.9002973085       -0.2232027969      -21.0557328745  HOAC      42              0.0000000000
      9438       499  HOAC      LPO12         -17.3401150966        0.1780834907      -21.1293533718  HOAC      42              0.0000000000
      9439       499  HOAC      LPO21         -17.5892204750       -2.1962341166      -20.1347696330  HOAC      42              0.0000000000
      9440       499  HOAC      LPO22         -17.6134281314       -2.3595735714      -20.7674192816  HOAC      42              0.0000000000
      9441       500  HOAC      C1            -12.2644356533        5.4860895204       26.0362609787  HOAC      43              0.0000000000
      9442       500  HOAC      DC1           -12.2555972455        5.5122850807       26.0314621414  HOAC      43              0.0000000000
      9443       500  HOAC      C2            -12.6083412309        5.1550229130       24.6231855363  HOAC      43              0.0000000000
      9444       500  HOAC      DC2           -12.6037706411        5.1856625972       24.6444785331  HOAC      43              0.0000000000
      9445       500  HOAC      H1            -11.7768066890        4.5813685020       24.1608091503  HOAC      43              0.0000000000
      9446       500  HOAC      H2            -12.7648582481        6.0892790223       24.0426780449  HOAC      43              0.0000000000
      9447       500  HOAC      H3            -13.5225688034        4.5257921898       24.5724150389  HOAC      43              0.0000000000
      9448       500  HOAC      O1            -11.9523277851        6.6071449498       26.4403538748  HOAC      43              0.0000000000
      9449       500  HOAC      DO1           -11.9473592402        6.6107930217       26.4562690601  HOAC      43              0.0000000000
      9450       500  HOAC      O2            -12.2594954784        4.3780614592       26.8192526967  HOAC      43              0.0000000000
      9451       500  HOAC      DO2           -12.2487929974        4.3965880126       26.8052301147  HOAC      43              0.0000000000
      9452       500  HOAC      H             -12.1228674950        4.6186805654       27.7479056136  HOAC      43              0.0000000000
      9453       500  HOAC      LPO11         -11.8992520336        6.4990751531       26.7151335750  HOAC      43              0.0000000000
      9454       500  HOAC      LPO12         -12.0027504492        6.7247443302       26.1690091850  HOAC      43              0.0000000000
      9455       500  HOAC      LPO21         -12.5831524756        4.3000238065       26.9272169174  HOAC      43              0.0000000000
      9456       500  HOAC      LPO22         -11.9366320675        4.2456463799       26.8461871479  HOAC      43              0.0000000000
      9457       501  HOAC      C1             -3.0093946054      -22.3472511789      -11.2197041847  HOAC      44              0.0000000000
      9458       501  HOAC      DC1            -3.0054221588      -22.3520879709      -11.2204854735  HOAC      44              0.0000000000
      9459       501  HOAC      C2             -1.5737576464      -22.7190488861      -11.2298412884  HOAC      44              0.0000000000
      9460       501  HOAC      DC2            -1.5888795097      -22.7304689743      -11.2242633217  HOAC      44              0.0000000000
      9461       501  HOAC      H1             -1.1611322010      -22.5714746971      -10.2089186169  HOAC      44              0.0000000000
      9462       501  HOAC      H2             -1.0219741900      -22.0772540711      -11.9495324949  HOAC      44              0.0000000000
      9463       501  HOAC      H3             -1.4562008777      -23.7804489671      -11.5363233851  HOAC      44              0.0000000000
      9464       501  HOAC      O1             -3.5178530916      -21.3896868532      -11.7834737345  HOAC      44              0.0000000000
      9465       501  HOAC      DO1            -3.5357417109      -21.4166434597      -11.7673313340  HOAC      44              0.0000000000
      9466       501  HOAC      O2             -3.7355892798      -23.2439068372      -10.4863656388  HOAC      44              0.0000000000
      9467       501  HOAC      DO2            -3.7247230624      -23.2511115170      -10.4847486520  HOAC      44              0.0000000000
      9468       501  HOAC      H              -4.6599230293      -22.9581612837      -10.5403804347  HOAC      44              0.0000000000
      9469       501  HOAC      LPO11          -3.7895387241      -21.4684347898      -11.6835453620  HOAC      44              0.0000000000
      9470       501  HOAC      LPO12          -3.2505244755      -21.3027334810      -11.8882330875  HOAC      44              0.0000000000
      9471       501  HOAC      LPO21          -3.8385883920      -23.5131754448      -10.6848236943  HOAC      44              0.0000000000
      9472       501  HOAC      LPO22          -3.7556710505      -23.1441363554      -10.1514886861  HOAC      44              0.0000000000
      9473       502  HOAC      C1            -32.8772724344       25.3271268370      -19.9310941695  HOAC      45              0.0000000000
      9474       502  HOAC      DC1           -32.8759367492       25.3236812008      -19.9239795876  HOAC      45              0.0000000000
      9475       502  HOAC      C2            -31.4344970840       25.3399399607      -19.5617521315  HOAC      45              0.0000000000
      9476       502  HOAC      DC2           -31.4568531458       25.3202378915      -19.5643793155  HOAC      45              0.0000000000
      9477       502  HOAC      H1            -31.0134929585       24.3132479722      -19.6163423178  HOAC      45              0.0000000000
      9478       502  HOAC      H2            -31.3112585763       25.7488025633      -18.5360988553  HOAC      45              0.0000000000
      9479       502  HOAC      H3            -30.8590518265       25.9946981111      -20.2505739663  HOAC      45              0.0000000000
      9480       502  HOAC      O1            -33.8287187374       25.4467972514      -19.1691641599  HOAC      45              0.0000000000
      9481       502  HOAC      DO1           -33.8341394084       25.4403978751      -19.1963594595  HOAC      45              0.0000000000
      9482       502  HOAC      O2            -33.0326131513       25.0908752424      -21.2561344534  HOAC      45              0.0000000000
      9483       502  HOAC      DO2           -33.0232498348       25.0839954035      -21.2448928606  HOAC      45              0.0000000000
      9484       502  HOAC      H             -33.9824722494       25.0815377415      -21.4475541618  HOAC      45              0.0000000000
      9485       502  HOAC      LPO11         -34.0216165022       25.4039620994      -19.3948976357  HOAC      45              0.0000000000
      9486       502  HOAC      LPO12         -33.6439554477       25.4906555362      -18.9369164955  HOAC      45              0.0000000000
      9487       502  HOAC      LPO21         -33.0326656888       25.3903990949      -21.4372020071  HOAC      45              0.0000000000
      9488       502  HOAC      LPO22         -33.0498578365       24.7472808275      -21.3205200023  HOAC      45              0.0000000000
      9489       503  HOAC      C1             12.9731592040      -30.8843126252      -25.1150732875  HOAC      46              0.0000000000
      9490       503  HOAC      DC1            12.9759749092      -30.8891310204      -25.1106237741  HOAC      46              0.0000000000
      9491       503  HOAC      C2             14.2763457462      -31.2180647227      -24.5015209880  HOAC      46              0.0000000000
      9492       503  HOAC      DC2            14.2511963123      -31.2078275105      -24.5043108683  HOAC      46              0.0000000000
      9493       503  HOAC      H1             15.0905123632      -30.6950361881      -25.0473184539  HOAC      46              0.0000000000
      9494       503  HOAC      H2             14.4437724722      -32.3152785081      -24.5506249720  HOAC      46              0.0000000000
      9495       503  HOAC      H3             14.2921310048      -30.9000307709      -23.4371309133  HOAC      46              0.0000000000
      9496       503  HOAC      O1             12.1889732626      -31.6898443555      -25.5857222729  HOAC      46              0.0000000000
      9497       503  HOAC      DO1            12.1817638541      -31.6635842922      -25.5738674962  HOAC      46              0.0000000000
      9498       503  HOAC      O2             12.7112093784      -29.5491726846      -25.0606040417  HOAC      46              0.0000000000
      9499       503  HOAC      DO2            12.7229864723      -29.5534153389      -25.0532273342  HOAC      46              0.0000000000
      9500       503  HOAC      H              11.8410443362      -29.4235684477      -25.4680317961  HOAC      46              0.0000000000
      9501       503  HOAC      LPO11          11.9933186697      -31.4710502564      -25.6477579279  HOAC      46              0.0000000000
      9502       503  HOAC      LPO12          12.3778901385      -31.9155595743      -25.5277304289  HOAC      46              0.0000000000
      9503       503  HOAC      LPO21          12.5499172388      -29.4656829517      -24.7614146197  HOAC      46              0.0000000000
      9504       503  HOAC      LPO22          12.8345008850      -29.3860539016      -25.3446664768  HOAC      46              0.0000000000
      9505       504  HOAC      C1             29.4700428653        0.7964595415      -19.9778029225  HOAC      47              0.0000000000
      9506       504  HOAC      DC1            29.4879746230        0.8036158100      -19.9648131942  HOAC      47              0.0000000000
      9507       504  HOAC      C2             30.4948094915        1.4902918320      -20.7951784388  HOAC      47              0.0000000000
      9508       504  HOAC      DC2            30.5004616977        1.4804468577      -20.7764061451  HOAC      47              0.0000000000
      9509       504  HOAC      H1             31.4238158736        1.6316178572      -20.2024769131  HOAC      47              0.0000000000
      9510       504  HOAC      H2             30.1113660517        2.4767595167      -21.1330743340  HOAC      47              0.0000000000
      9511       504  HOAC      H3             30.7204415476        0.8644536141      -21.6849748763  HOAC      47              0.0000000000
      9512       504  HOAC      O1             28.4002388363        1.2573443840      -19.6331392700  HOAC      47              0.0000000000
      9513       504  HOAC      DO1            28.4243767847        1.2378864413      -19.6035237168  HOAC      47              0.0000000000
      9514       504  HOAC      O2             29.9659739703       -0.3577921832      -19.4378477534  HOAC      47              0.0000000000
      9515       504  HOAC      DO2            29.9899972619       -0.3349062220      -19.4079679035  HOAC      47              0.0000000000
      9516       504  HOAC      H              29.1973065791       -0.8398455131      -19.0976477697  HOAC      47              0.0000000000
      9517       504  HOAC      LPO11          28.3596221250        1.0319534296      -19.4393631094  HOAC      47              0.0000000000
      9518       504  HOAC      LPO12          28.4316337955        1.4867081836      -19.8239444166  HOAC      47              0.0000000000
      9519       504  HOAC      LPO21          29.9826095112       -0.6112188474      -19.6786758760  HOAC      47              0.0000000000
      9520       504  HOAC      LPO22          30.0504754127       -0.3119685773      -19.1013069633  HOAC      47              0.0000000000
      9521       505  HOAC      C1             -6.3837163032       15.4698681513      -21.7512482304  HOAC      48              0.0000000000
      9522       505  HOAC      DC1            -6.3711365552       15.4809056016      -21.7543002622  HOAC      48              0.0000000000
      9523       505  HOAC      C2             -6.4025943596       16.2080972222      -20.4569385454  HOAC      48              0.0000000000
      9524       505  HOAC      DC2            -6.4013765752       16.2163847726      -20.4856174281  HOAC      48              0.0000000000
      9525       505  HOAC      H1             -7.2713851520       16.8993930693      -20.4165205935  HOAC      48              0.0000000000
      9526       505  HOAC      H2             -5.4643910076       16.7858820901      -20.3146005056  HOAC      48              0.0000000000
      9527       505  HOAC      H3             -6.4810175002       15.4968988371      -19.6070163910  HOAC      48              0.0000000000
      9528       505  HOAC      O1             -5.4239575886       15.3731572288      -22.5075327228  HOAC      48              0.0000000000
      9529       505  HOAC      DO1            -5.4444708132       15.3653779039      -22.5192413728  HOAC      48              0.0000000000
      9530       505  HOAC      O2             -7.6024275754       14.9381150896      -22.0392932283  HOAC      48              0.0000000000
      9531       505  HOAC      DO2            -7.5966645403       14.9487648809      -22.0281928269  HOAC      48              0.0000000000
      9532       505  HOAC      H              -7.5283870910       14.4819738716      -22.8910057360  HOAC      48              0.0000000000
      9533       505  HOAC      LPO11          -5.5884224902       15.2182801024      -22.7049266737  HOAC      48              0.0000000000
      9534       505  HOAC      LPO12          -5.2512935574       15.5272081627      -22.3165996400  HOAC      48              0.0000000000
      9535       505  HOAC      LPO21          -7.6327234899       14.6159028266      -21.9060212691  HOAC      48              0.0000000000
      9536       505  HOAC      LPO22          -7.7999705579       15.1669497204      -22.2156777000  HOAC      48              0.0000000000
      9537       506  HOAC      C1             19.1078351036       29.5572959706      -27.7098916261  HOAC      49              0.0000000000
      9538       506  HOAC      DC1            19.1057678336       29.5623990707      -27.7020548079  HOAC      49              0.0000000000
      9539       506  HOAC      C2             20.4268992252       29.0978820472      -27.2060079838  HOAC      49              0.0000000000
      9540       506  HOAC      DC2            20.4019186584       29.1091494736      -27.2173692801  HOAC      49              0.0000000000
      9541       506  HOAC      H1             20.6094168988       28.0430077228      -27.5030744065  HOAC      49              0.0000000000
      9542       506  HOAC      H2             20.4669699632       29.1734435018      -26.0983050441  HOAC      49              0.0000000000
      9543       506  HOAC      H3             21.2256226121       29.7371635548      -27.6392297601  HOAC      49              0.0000000000
      9544       506  HOAC      O1             18.2312891582       30.0848548960      -27.0371010180  HOAC      49              0.0000000000
      9545       506  HOAC      DO1            18.2294878744       30.0869779618      -27.0632703020  HOAC      49              0.0000000000
      9546       506  HOAC      O2             19.0068579797       29.3962617996      -29.0605830715  HOAC      49              0.0000000000
      9547       506  HOAC      DO2            19.0184200159       29.4103984415      -29.0546878035  HOAC      49              0.0000000000
      9548       506  HOAC      H              18.0924507222       29.5894695814      -29.3164954042  HOAC      49              0.0000000000
      9549       506  HOAC      LPO11          18.0626419794       30.1283162455      -27.2813738986  HOAC      49              0.0000000000
      9550       506  HOAC      LPO12          18.3924402052       30.0459051766      -26.7870745006  HOAC      49              0.0000000000
      9551       506  HOAC      LPO21          19.0816945810       29.6944750798      -29.2278203958  HOAC      49              0.0000000000
      9552       506  HOAC      LPO22          18.9245810457       29.0657392046      -29.1411145580  HOAC      49              0.0000000000
      9553       507  HOAC      C1             10.2986070209       24.4553202230       17.4762288550  HOAC      50              0.0000000000
      9554       507  HOAC      DC1            10.3067869828       24.4557798057       17.4779385204  HOAC      50              0.0000000000
      9555       507  HOAC      C2             11.4082427885       24.3775010604       16.5061092337  HOAC      50              0.0000000000
      9556       507  HOAC      DC2            11.3928203017       24.3871244463       16.5255289931  HOAC      50              0.0000000000
      9557       507  HOAC      H1             11.3566486939       25.2249003098       15.7894687648  HOAC      50              0.0000000000
      9558       507  HOAC      H2             11.3358681424       23.4253200853       15.9382762444  HOAC      50              0.0000000000
      9559       507  HOAC      H3             12.3771334700       24.4128666412       17.0486229418  HOAC      50              0.0000000000
      9560       507  HOAC      O1              9.5103069226       23.5602645959       17.7160065665  HOAC      50              0.0000000000
      9561       507  HOAC      DO1             9.5149648733       23.5890145279       17.7386540629  HOAC      50              0.0000000000
      9562       507  HOAC      O2             10.3094367317       25.6400787314       18.1562770153  HOAC      50              0.0000000000
      9563       507  HOAC      DO2            10.3351624437       25.6409539401       18.1527230306  HOAC      50              0.0000000000
      9564       507  HOAC      H               9.5014675340       25.6559917616       18.6909671602  HOAC      50              0.0000000000
      9565       507  HOAC      LPO11           9.3833846396       23.7232174764       17.9335774579  HOAC      50              0.0000000000
      9566       507  HOAC      LPO12           9.6304440133       23.3896076384       17.5004995311  HOAC      50              0.0000000000
      9567       507  HOAC      LPO21          10.4756953961       25.6067792777       18.4624619315  HOAC      50              0.0000000000
      9568       507  HOAC      LPO22          10.1551040955       25.8926635129       17.9695088017  HOAC      50              0.0000000000
      9569       508  HOAC      C1            -13.1171416862      -10.5378614846        6.8282085659  HOAC      51              0.0000000000
      9570       508  HOAC      DC1           -13.1248884644      -10.5691651654        6.8264773132  HOAC      51              0.0000000000
      9571       508  HOAC      C2            -14.2745812917      -11.0361546345        7.6325727950  HOAC      51              0.0000000000
      9572       508  HOAC      DC2           -14.2771845695      -11.0915332720        7.6086726682  HOAC      51              0.0000000000
      9573       508  HOAC      H1            -14.4090854109      -10.3545744792        8.4995665292  HOAC      51              0.0000000000
      9574       508  HOAC      H2            -14.0639776751      -12.0558979935        8.0199880748  HOAC      51              0.0000000000
      9575       508  HOAC      H3            -15.2091679873      -11.0048123681        7.0326674936  HOAC      51              0.0000000000
      9576       508  HOAC      O1            -12.1322701997      -11.2230276201        6.5801386619  HOAC      51              0.0000000000
      9577       508  HOAC      DO1           -12.1404979390      -11.2234424119        6.5721105192  HOAC      51              0.0000000000
      9578       508  HOAC      O2            -13.3988939326       -9.3498439210        6.2346807923  HOAC      51              0.0000000000
      9579       508  HOAC      DO2           -13.4204297068       -9.3880285139        6.2213622239  HOAC      51              0.0000000000
      9580       508  HOAC      H             -12.5751319583       -8.9347055496        5.9379699191  HOAC      51              0.0000000000
      9581       508  HOAC      LPO11         -12.0373928137      -11.0227873187        6.3778959776  HOAC      51              0.0000000000
      9582       508  HOAC      LPO12         -12.2187297369      -11.4291241422        6.7802610544  HOAC      51              0.0000000000
      9583       508  HOAC      LPO21         -13.4583246343       -9.3922693088        5.8923825624  HOAC      51              0.0000000000
      9584       508  HOAC      LPO22         -13.4024107690       -9.0905578467        6.4697517678  HOAC      51              0.0000000000
      9585       509  HOAC      C1             -3.8966910587       22.4202336831      -22.1220967760  HOAC      52              0.0000000000
      9586       509  HOAC      DC1            -3.8956316380       22.4224441826      -22.1281412549  HOAC      52              0.0000000000
      9587       509  HOAC      C2             -3.0192336153       22.6130418823      -20.9482863960  HOAC      52              0.0000000000
      9588       509  HOAC      DC2            -3.0415284950       22.6111199996      -20.9884697752  HOAC      52              0.0000000000
      9589       509  HOAC      H1             -2.5057921194       23.5959451964      -21.0161089991  HOAC      52              0.0000000000
      9590       509  HOAC      H2             -2.2656899328       21.8019090806      -20.8557850518  HOAC      52              0.0000000000
      9591       509  HOAC      H3             -3.6299302437       22.6312364557      -20.0203642084  HOAC      52              0.0000000000
      9592       509  HOAC      O1             -3.9855619745       21.4278464361      -22.8303790347  HOAC      52              0.0000000000
      9593       509  HOAC      DO1            -4.0205009846       21.4645642174      -22.8461965118  HOAC      52              0.0000000000
      9594       509  HOAC      O2             -4.6516048482       23.5318698199      -22.3759659627  HOAC      52              0.0000000000
      9595       509  HOAC      DO2            -4.6520350365       23.5478518832      -22.3787072508  HOAC      52              0.0000000000
      9596       509  HOAC      H              -5.2450831201       23.2497574982      -23.0881156511  HOAC      52              0.0000000000
      9597       509  HOAC      LPO11          -4.1917446609       21.5622747428      -23.0018950112  HOAC      52              0.0000000000
      9598       509  HOAC      LPO12          -3.7801405492       21.2849174204      -22.6649301468  HOAC      52              0.0000000000
      9599       509  HOAC      LPO21          -4.9369775736       23.5379272711      -22.1734179070  HOAC      52              0.0000000000
      9600       509  HOAC      LPO22          -4.4984310779       23.7344978984      -22.6167556176  HOAC      52              0.0000000000
      9601       510  HOAC      C1            -16.5911027755       31.0359483435       34.1933953285  HOAC      53              0.0000000000
      9602       510  HOAC      DC1           -16.5897906623       31.0350502252       34.1911313537  HOAC      53              0.0000000000
      9603       510  HOAC      C2            -16.6867418746       32.1814432240       33.2544082884  HOAC      53              0.0000000000
      9604       510  HOAC      DC2           -16.6681582724       32.1406822067       33.2761413291  HOAC      53              0.0000000000
      9605       510  HOAC      H1            -15.8736376308       32.9091698989       33.4632057443  HOAC      53              0.0000000000
      9606       510  HOAC      H2            -17.6660286276       32.6954290364       33.3599404701  HOAC      53              0.0000000000
      9607       510  HOAC      H3            -16.5881781812       31.8379099340       32.2024619604  HOAC      53              0.0000000000
      9608       510  HOAC      O1            -17.4460069885       30.6628542720       34.9831246765  HOAC      53              0.0000000000
      9609       510  HOAC      DO1           -17.4174337879       30.6451449143       34.9772906412  HOAC      53              0.0000000000
      9610       510  HOAC      O2            -15.3926262162       30.4007396763       34.0642319744  HOAC      53              0.0000000000
      9611       510  HOAC      DO2           -15.3850258478       30.4091838510       34.0495276107  HOAC      53              0.0000000000
      9612       510  HOAC      H             -15.3808335529       29.7042955250       34.7378694713  HOAC      53              0.0000000000
      9613       510  HOAC      LPO11         -17.2701557613       30.4379751060       35.0753510642  HOAC      53              0.0000000000
      9614       510  HOAC      LPO12         -17.6291828772       30.8845368369       34.8976645441  HOAC      53              0.0000000000
      9615       510  HOAC      LPO21         -15.4149756115       30.1374079306       33.8347610694  HOAC      53              0.0000000000
      9616       510  HOAC      LPO22         -15.1478470634       30.5546481420       34.2614510164  HOAC      53              0.0000000000
      9617       511  HOAC      C1            -15.5084725792        7.1288754289       26.7228868510  HOAC      54              0.0000000000
      9618       511  HOAC      DC1           -15.5113864031        7.1424063027       26.7137474832  HOAC      54              0.0000000000
      9619       511  HOAC      C2            -16.7928860128        6.6663904025       26.1520397268  HOAC      54              0.0000000000
      9620       511  HOAC      DC2           -16.7699512901        6.6976749428       26.1635692186  HOAC      54              0.0000000000
      9621       511  HOAC      H1            -17.6404121438        7.2518644805       26.5682614965  HOAC      54              0.0000000000
      9622       511  HOAC      H2            -16.9699572129        5.5941652091       26.3829074913  HOAC      54              0.0000000000
      9623       511  HOAC      H3            -16.7697331212        6.7863686395       25.0477797179  HOAC      54              0.0000000000
      9624       511  HOAC      O1            -14.7182695636        6.4610829985       27.3660721918  HOAC      54              0.0000000000
      9625       511  HOAC      DO1           -14.7114838552        6.4947587770       27.3465109085  HOAC      54              0.0000000000
      9626       511  HOAC      O2            -15.2472055801        8.4428916302       26.4149852692  HOAC      54              0.0000000000
      9627       511  HOAC      DO2           -15.2556670967        8.4697334936       26.4077991682  HOAC      54              0.0000000000
      9628       511  HOAC      H             -14.3483256133        8.5611462128       26.7570257041  HOAC      54              0.0000000000
      9629       511  HOAC      LPO11         -14.5300558583        6.6938122779       27.3863868089  HOAC      54              0.0000000000
      9630       511  HOAC      LPO12         -14.8996909156        6.2226135714       27.3512862073  HOAC      54              0.0000000000
      9631       511  HOAC      LPO21         -15.1065886829        8.4707353977       26.0956866428  HOAC      54              0.0000000000
      9632       511  HOAC      LPO22         -15.3507245305        8.6547102785       26.6736678685  HOAC      54              0.0000000000
      9633       512  HOAC      C1            -18.3362165226       18.3739289340       -4.0920324769  HOAC      55              0.0000000000
      9634       512  HOAC      DC1           -18.3372884360       18.3793524198       -4.0843007331  HOAC      55              0.0000000000
      9635       512  HOAC      C2            -18.1520118247       16.9255063615       -4.0849643257  HOAC      55              0.0000000000
      9636       512  HOAC      DC2           -18.1704045363       16.9726014947       -4.0895376999  HOAC      55              0.0000000000
      9637       512  HOAC      H1            -19.0662399063       16.4021323105       -3.7319946112  HOAC      55              0.0000000000
      9638       512  HOAC      H2            -17.3049329257       16.6611340718       -3.4164692757  HOAC      55              0.0000000000
      9639       512  HOAC      H3            -17.9289958776       16.5910211352       -5.1206788234  HOAC      55              0.0000000000
      9640       512  HOAC      O1            -17.7420834157       19.1711971735       -3.3823772457  HOAC      55              0.0000000000
      9641       512  HOAC      DO1           -17.7665819169       19.1804586349       -3.3915241871  HOAC      55              0.0000000000
      9642       512  HOAC      O2            -19.2970594929       18.7349028518       -4.9837573909  HOAC      55              0.0000000000
      9643       512  HOAC      DO2           -19.2998411110       18.7243900613       -4.9774367402  HOAC      55              0.0000000000
      9644       512  HOAC      H             -19.4535588073       19.6868424268       -4.8927628303  HOAC      55              0.0000000000
      9645       512  HOAC      LPO11         -17.8971967636       19.3994789293       -3.4999667405  HOAC      55              0.0000000000
      9646       512  HOAC      LPO12         -17.5818771017       18.9497496778       -3.2587045180  HOAC      55              0.0000000000
      9647       512  HOAC      LPO21         -19.1552664284       18.8219579308       -5.2916796864  HOAC      55              0.0000000000
      9648       512  HOAC      LPO22         -19.6160413966       18.7033375186       -4.8432078450  HOAC      55              0.0000000000
      9649       513  HOAC      C1              9.4997298097        6.8512630119      -29.4756564082  HOAC      56              0.0000000000
      9650       513  HOAC      DC1             9.4906557376        6.8516448325      -29.4631101610  HOAC      56              0.0000000000
      9651       513  HOAC      C2             10.6281671018        5.9431274483      -29.1320827731  HOAC      56              0.0000000000
      9652       513  HOAC      DC2            10.6031693320        5.9686934636      -29.1239316762  HOAC      56              0.0000000000
      9653       513  HOAC      H1             10.9004151869        5.2889372137      -29.9877913203  HOAC      56              0.0000000000
      9654       513  HOAC      H2             10.3436741628        5.2821137142      -28.2856516707  HOAC      56              0.0000000000
      9655       513  HOAC      H3             11.5376625246        6.5228698478      -28.8655535478  HOAC      56              0.0000000000
      9656       513  HOAC      O1              8.4075266625        6.8615294351      -28.9167273047  HOAC      56              0.0000000000
      9657       513  HOAC      DO1             8.4081295840        6.8824664365      -28.9150088420  HOAC      56              0.0000000000
      9658       513  HOAC      O2              9.8294947175        7.7558571742      -30.4353965721  HOAC      56              0.0000000000
      9659       513  HOAC      DO2             9.8310426370        7.7518540841      -30.4321801253  HOAC      56              0.0000000000
      9660       513  HOAC      H               9.0746590455        8.3574461945      -30.5206887694  HOAC      56              0.0000000000
      9661       513  HOAC      LPO11           8.3210489798        7.0988595232      -29.0785792114  HOAC      56              0.0000000000
      9662       513  HOAC      LPO12           8.4846829292        6.6242869659      -28.7501052133  HOAC      56              0.0000000000
      9663       513  HOAC      LPO21           9.9943969401        8.0313021782      -30.2959788301  HOAC      56              0.0000000000
      9664       513  HOAC      LPO22           9.7352723223        7.6414491705      -30.7524658846  HOAC      56              0.0000000000
      9665       514  HOAC      C1             21.3055635278        7.5844885985       12.9339436735  HOAC      57              0.0000000000
      9666       514  HOAC      DC1            21.2976342906        7.5932883738       12.9202096084  HOAC      57              0.0000000000
      9667       514  HOAC      C2             20.8380927756        8.6266005711       11.9824190750  HOAC      57              0.0000000000
      9668       514  HOAC      DC2            20.8394236982        8.6056370955       11.9772078211  HOAC      57              0.0000000000
      9669       514  HOAC      H1             21.2100033153        8.4190125928       10.9563046645  HOAC      57              0.0000000000
      9670       514  HOAC      H2             21.2036189780        9.6241187451       12.3074868965  HOAC      57              0.0000000000
      9671       514  HOAC      H3             19.7271147213        8.6270830079       11.9754527153  HOAC      57              0.0000000000
      9672       514  HOAC      O1             21.8181985049        7.7982024522       14.0191593650  HOAC      57              0.0000000000
      9673       514  HOAC      DO1            21.8091960409        7.7841226491       13.9992195722  HOAC      57              0.0000000000
      9674       514  HOAC      O2             21.0325550286        6.3391237794       12.4528805875  HOAC      57              0.0000000000
      9675       514  HOAC      DO2            21.0154679398        6.3502037281       12.4310540982  HOAC      57              0.0000000000
      9676       514  HOAC      H              21.3827160975        5.7182127015       13.1092476032  HOAC      57              0.0000000000
      9677       514  HOAC      LPO11          21.8329146707        7.5040091715       14.0760254186  HOAC      57              0.0000000000
      9678       514  HOAC      LPO12          21.8078856751        8.0942314521       13.9716148941  HOAC      57              0.0000000000
      9679       514  HOAC      LPO21          20.7177317822        6.2300963536       12.5601155816  HOAC      57              0.0000000000
      9680       514  HOAC      LPO22          21.2924081840        6.2245642621       12.2483018627  HOAC      57              0.0000000000
      9681       515  HOAC      C1             17.8265990517       13.3305566800      -26.4564321708  HOAC      58              0.0000000000
      9682       515  HOAC      DC1            17.8104171154       13.3432165295      -26.4550907546  HOAC      58              0.0000000000
      9683       515  HOAC      C2             18.1957566092       12.8911832137      -25.0952253328  HOAC      58              0.0000000000
      9684       515  HOAC      DC2            18.2032700531       12.9176069621      -25.1291911704  HOAC      58              0.0000000000
      9685       515  HOAC      H1             18.3104149127       11.7861758761      -25.0836815937  HOAC      58              0.0000000000
      9686       515  HOAC      H2             17.4091900657       13.1640133216      -24.3595638584  HOAC      58              0.0000000000
      9687       515  HOAC      H3             19.1500513621       13.3759678217      -24.7975234509  HOAC      58              0.0000000000
      9688       515  HOAC      O1             16.7730586190       13.8625186900      -26.7685525898  HOAC      58              0.0000000000
      9689       515  HOAC      DO1            16.7844277677       13.8679896029      -26.7943158482  HOAC      58              0.0000000000
      9690       515  HOAC      O2             18.8183905396       13.1024063988      -27.3601940854  HOAC      58              0.0000000000
      9691       515  HOAC      DO2            18.8119058544       13.1019018648      -27.3445770583  HOAC      58              0.0000000000
      9692       515  HOAC      H              18.5219010091       13.4433467341      -28.2174073879  HOAC      58              0.0000000000
      9693       515  HOAC      LPO11          16.8640061302       13.8875619037      -27.0533356434  HOAC      58              0.0000000000
      9694       515  HOAC      LPO12          16.6730743298       13.8420383981      -26.4864467593  HOAC      58              0.0000000000
      9695       515  HOAC      LPO21          19.0436667095       13.3701376246      -27.3685987280  HOAC      58              0.0000000000
      9696       515  HOAC      LPO22          18.7814155770       12.7879850975      -27.5094324765  HOAC      58              0.0000000000
      9697       516  HOAC      C1             14.2700144534        2.8925702726       29.9961672831  HOAC      59              0.0000000000
      9698       516  HOAC      DC1            14.2579202843        2.8861695291       29.9945261565  HOAC      59              0.0000000000
      9699       516  HOAC      C2             13.4290013552        1.6962065826       29.7150381195  HOAC      59              0.0000000000
      9700       516  HOAC      DC2            13.4311011911        1.7085124652       29.7190596230  HOAC      59              0.0000000000
      9701       516  HOAC      H1             12.6225855045        1.6211825609       30.4755549654  HOAC      59              0.0000000000
      9702       516  HOAC      H2             14.0475296796        0.7737870849       29.7448035731  HOAC      59              0.0000000000
      9703       516  HOAC      H3             12.9765191400        1.7916814783       28.7048572490  HOAC      59              0.0000000000
      9704       516  HOAC      O1             15.4704377163        2.8998390781       30.1882589515  HOAC      59              0.0000000000
      9705       516  HOAC      DO1            15.4413454892        2.9368167838       30.1847365172  HOAC      59              0.0000000000
      9706       516  HOAC      O2             13.5496820624        4.0505980874       30.0234530398  HOAC      59              0.0000000000
      9707       516  HOAC      DO2            13.5389308712        4.0481493308       30.0300281387  HOAC      59              0.0000000000
      9708       516  HOAC      H              14.2216245900        4.7303482344       30.1828079181  HOAC      59              0.0000000000
      9709       516  HOAC      LPO11          15.4681508892        3.1976433342       30.2244168752  HOAC      59              0.0000000000
      9710       516  HOAC      LPO12          15.4830642556        2.6020974310       30.1537555880  HOAC      59              0.0000000000
      9711       516  HOAC      LPO21          13.5211707577        4.1874954286       29.7026007007  HOAC      59              0.0000000000
      9712       516  HOAC      LPO22          13.4367437614        4.1197854589       30.3474253345  HOAC      59              0.0000000000
      9713       517  HOAC      C1             -6.4177466869       17.8244803079      -23.8956187487  HOAC      60              0.0000000000
      9714       517  HOAC      DC1            -6.4274238851       17.8332277883      -23.8839787759  HOAC      60              0.0000000000
      9715       517  HOAC      C2             -7.2841892099       18.6795669482      -23.0502692151  HOAC      60              0.0000000000
      9716       517  HOAC      DC2            -7.2927495940       18.6850460792      -23.0526749271  HOAC      60              0.0000000000
      9717       517  HOAC      H1             -8.0902815740       19.0970810830      -23.6907518832  HOAC      60              0.0000000000
      9718       517  HOAC      H2             -6.6763947399       19.4975479471      -22.6077604946  HOAC      60              0.0000000000
      9719       517  HOAC      H3             -7.7273444376       18.0703086140      -22.2337285069  HOAC      60              0.0000000000
      9720       517  HOAC      O1             -5.2209929555       17.9865160194      -24.0580620033  HOAC      60              0.0000000000
      9721       517  HOAC      DO1            -5.2398858456       17.9659593088      -24.0659104842  HOAC      60              0.0000000000
      9722       517  HOAC      O2             -7.1333730554       16.8102075043      -24.4612871891  HOAC      60              0.0000000000
      9723       517  HOAC      DO2            -7.1471181665       16.8186141199      -24.4485905053  HOAC      60              0.0000000000
      9724       517  HOAC      H              -6.5004528240       16.2663438187      -24.9538166523  HOAC      60              0.0000000000
      9725       517  HOAC      LPO11          -5.2070933638       17.7451556625      -24.2356907720  HOAC      60              0.0000000000
      9726       517  HOAC      LPO12          -5.2246084023       18.2292688088      -23.8818291693  HOAC      60              0.0000000000
      9727       517  HOAC      LPO21          -7.1541299636       16.5361016437      -24.2446420232  HOAC      60              0.0000000000
      9728       517  HOAC      LPO22          -7.2531794126       16.9027977717      -24.7768398458  HOAC      60              0.0000000000
      9729       518  HOAC      C1             23.1549072251      -11.3695714404        0.2850535605  HOAC      61              0.0000000000
      9730       518  HOAC      DC1            23.1563967723      -11.3567790817        0.2848238438  HOAC      61              0.0000000000
      9731       518  HOAC      C2             23.3809938304       -9.8987804106        0.3687831049  HOAC      61              0.0000000000
      9732       518  HOAC      DC2            23.3656116009       -9.9046568624        0.3721294727  HOAC      61              0.0000000000
      9733       518  HOAC      H1             22.7809535576       -9.3785407847       -0.4081489410  HOAC      61              0.0000000000
      9734       518  HOAC      H2             24.4564513545       -9.6683733181        0.2118605557  HOAC      61              0.0000000000
      9735       518  HOAC      H3             23.0800754442       -9.5429762053        1.3773328025  HOAC      61              0.0000000000
      9736       518  HOAC      O1             24.0240643092      -12.2060227222        0.1193532281  HOAC      61              0.0000000000
      9737       518  HOAC      DO1            23.9938826565      -12.2006328117        0.1060435702  HOAC      61              0.0000000000
      9738       518  HOAC      O2             21.8308171233      -11.6833882483        0.3965035994  HOAC      61              0.0000000000
      9739       518  HOAC      DO2            21.8300890672      -11.6560455948        0.4009468837  HOAC      61              0.0000000000
      9740       518  HOAC      H              21.7683683136      -12.6456001829        0.3005382977  HOAC      61              0.0000000000
      9741       518  HOAC      LPO11          23.8200775565      -12.4259901370        0.1212874300  HOAC      61              0.0000000000
      9742       518  HOAC      LPO12          24.2355258938      -11.9932488663        0.1159939879  HOAC      61              0.0000000000
      9743       518  HOAC      LPO21          21.7438664599      -11.7410924714        0.7305841357  HOAC      61              0.0000000000
      9744       518  HOAC      LPO22          21.6730986279      -11.6720390165        0.0842599907  HOAC      61              0.0000000000
      9745       519  HOAC      C1            -29.9784923532       21.1748592958       27.1243564129  HOAC      62              0.0000000000
      9746       519  HOAC      DC1           -29.9870969347       21.1871493340       27.1244946271  HOAC      62              0.0000000000
      9747       519  HOAC      C2            -29.6459325676       22.0653058055       25.9795169242  HOAC      62              0.0000000000
      9748       519  HOAC      DC2           -29.6450975313       22.0644074888       25.9956367723  HOAC      62              0.0000000000
      9749       519  HOAC      H1            -28.6099089950       22.4461034934       26.1058865394  HOAC      62              0.0000000000
      9750       519  HOAC      H2            -30.3477740382       22.9255379942       25.9378020342  HOAC      62              0.0000000000
      9751       519  HOAC      H3            -29.7201137435       21.4902785337       25.0318029431  HOAC      62              0.0000000000
      9752       519  HOAC      O1            -30.8888072251       21.3624387412       27.9210974698  HOAC      62              0.0000000000
      9753       519  HOAC      DO1           -30.8815299618       21.3634710989       27.9175848692  HOAC      62              0.0000000000
      9754       519  HOAC      O2            -29.1239186601       20.1268473444       27.1755508057  HOAC      62              0.0000000000
      9755       519  HOAC      DO2           -29.1264613068       20.1471518402       27.1586446323  HOAC      62              0.0000000000
      9756       519  HOAC      H             -29.3375563071       19.5588361472       27.9309865976  HOAC      62              0.0000000000
      9757       519  HOAC      LPO11         -30.8155770377       21.1133767929       28.0714486773  HOAC      62              0.0000000000
      9758       519  HOAC      LPO12         -30.9698240023       21.6131051938       27.7775613722  HOAC      62              0.0000000000
      9759       519  HOAC      LPO21         -29.2449189758       19.8577611584       26.9872649906  HOAC      62              0.0000000000
      9760       519  HOAC      LPO22         -28.8398987972       20.2064256291       27.3639652799  HOAC      62              0.0000000000
      9761       520  HOAC      C1             29.4409284549      -15.1744380113       21.6661009083  HOAC      63              0.0000000000
      9762       520  HOAC      DC1            29.4408611276      -15.1827513365       21.6775539728  HOAC      63              0.0000000000
      9763       520  HOAC      C2             28.3975183547      -14.1762113779       21.3169229538  HOAC      63              0.0000000000
      9764       520  HOAC      DC2            28.4338654967      -14.2086345894       21.3473674123  HOAC      63              0.0000000000
      9765       520  HOAC      H1             28.3862113229      -13.3459708331       22.0550921683  HOAC      63              0.0000000000
      9766       520  HOAC      H2             27.3887590739      -14.6410179152       21.2908346959  HOAC      63              0.0000000000
      9767       520  HOAC      H3             28.6068723458      -13.7419616536       20.3159638721  HOAC      63              0.0000000000
      9768       520  HOAC      O1             29.2728066374      -16.3661676577       21.8979030523  HOAC      63              0.0000000000
      9769       520  HOAC      DO1            29.2902149276      -16.3567482498       21.9168121318  HOAC      63              0.0000000000
      9770       520  HOAC      O2             30.6470940787      -14.5733166051       21.8178408855  HOAC      63              0.0000000000
      9771       520  HOAC      DO2            30.6392285261      -14.5646268846       21.8224148681  HOAC      63              0.0000000000
      9772       520  HOAC      H              31.2987732693      -15.2665460401       22.0014387695  HOAC      63              0.0000000000
      9773       520  HOAC      LPO11          29.5612682410      -16.3974162730       21.9741488867  HOAC      63              0.0000000000
      9774       520  HOAC      LPO12          28.9829086703      -16.3451006890       21.8236376397  HOAC      63              0.0000000000
      9775       520  HOAC      LPO21          30.8119801616      -14.5448752582       21.5104263942  HOAC      63              0.0000000000
      9776       520  HOAC      LPO22          30.6994694082      -14.4809021851       22.1513321145  HOAC      63              0.0000000000
      9777       521  HOAC      C1              6.2870794879       24.7088621796      -21.3108088492  HOAC      64              0.0000000000
      9778       521  HOAC      DC1             6.2856315274       24.6972170620      -21.3268559166  HOAC      64              0.0000000000
      9779       521  HOAC      C2              7.7469572324       24.6746035491      -21.5142991755  HOAC      64              0.0000000000
      9780       521  HOAC      DC2             7.7202100922       24.6660361208      -21.5112052848  HOAC      64              0.0000000000
      9781       521  HOAC      H1              8.0905631620       25.6563932128      -21.9046131824  HOAC      64              0.0000000000
      9782       521  HOAC      H2              8.0165003897       23.8788380031      -22.2412274269  HOAC      64              0.0000000000
      9783       521  HOAC      H3              8.2442032562       24.4732018736      -20.5414144151  HOAC      64              0.0000000000
      9784       521  HOAC      O1              5.4889207230       23.9663184836      -21.8570794729  HOAC      64              0.0000000000
      9785       521  HOAC      DO1             5.4704323649       23.9818653982      -21.8452532811  HOAC      64              0.0000000000
      9786       521  HOAC      O2              5.9305784699       25.7352439544      -20.4940044750  HOAC      64              0.0000000000
      9787       521  HOAC      DO2             5.9482099219       25.7404436762      -20.5321197088  HOAC      64              0.0000000000
      9788       521  HOAC      H               5.0343128750       25.5993237170      -20.1516674008  HOAC      64              0.0000000000
      9789       521  HOAC      LPO11           5.2589482294       24.1133005651      -21.7325446587  HOAC      64              0.0000000000
      9790       521  HOAC      LPO12           5.7120389069       23.8129596955      -21.9863054691  HOAC      64              0.0000000000
      9791       521  HOAC      LPO21           6.0253702888       25.6704143208      -20.1633813820  HOAC      64              0.0000000000
      9792       521  HOAC      LPO22           5.7804441432       25.9935457171      -20.6763225579  HOAC      64              0.0000000000
      9793       522  HOAC      C1             -0.5804558029       31.0036738230       34.6205442034  HOAC      65              0.0000000000
      9794       522  HOAC      DC1            -0.5882236802       30.9743635486       34.6121296389  HOAC      65              0.0000000000
      9795       522  HOAC      C2             -1.2025479603       32.3515664207       34.6721944678  HOAC      65              0.0000000000
      9796       522  HOAC      DC2            -1.1675036806       32.3114413054       34.6365396339  HOAC      65              0.0000000000
      9797       522  HOAC      H1             -0.4284654826       33.1232970744       34.8710640627  HOAC      65              0.0000000000
      9798       522  HOAC      H2             -1.9627240762       32.4141092688       35.4799949793  HOAC      65              0.0000000000
      9799       522  HOAC      H3             -1.6910942942       32.5931191724       33.7040541122  HOAC      65              0.0000000000
      9800       522  HOAC      O1             -1.0154780793       29.9161738591       34.9937982910  HOAC      65              0.0000000000
      9801       522  HOAC      DO1            -1.0042983966       29.8906684161       34.9114462290  HOAC      65              0.0000000000
      9802       522  HOAC      O2              0.4937483223       31.0747397717       33.7995017839  HOAC      65              0.0000000000
      9803       522  HOAC      DO2             0.4771950150       31.0736562112       33.7976609055  HOAC      65              0.0000000000
      9804       522  HOAC      H               0.9383867099       30.2137816841       33.8024809909  HOAC      65              0.0000000000
      9805       522  HOAC      LPO11          -0.8035609139       29.7719814783       34.8379147692  HOAC      65              0.0000000000
      9806       522  HOAC      LPO12          -1.2311008087       30.0511028042       35.1528612292  HOAC      65              0.0000000000
      9807       522  HOAC      LPO21           0.4059807203       30.9900264798       33.4714461389  HOAC      65              0.0000000000
      9808       522  HOAC      LPO22           0.7771354788       31.1834461448       33.9737850131  HOAC      65              0.0000000000
      9809       523  HOAC      C1              6.8400766289       20.8061124744       12.6497009853  HOAC      66              0.0000000000
      9810       523  HOAC      DC1             6.8528394705       20.8008665426       12.6473794602  HOAC      66              0.0000000000
      9811       523  HOAC      C2              6.3493278344       19.4350569356       12.3698335442  HOAC      66              0.0000000000
      9812       523  HOAC      DC2             6.3542128102       19.4598337247       12.3785867163  HOAC      66              0.0000000000
      9813       523  HOAC      H1              5.9025485683       18.9800320014       13.2795926324  HOAC      66              0.0000000000
      9814       523  HOAC      H2              7.1934583811       18.7842857995       12.0563665619  HOAC      66              0.0000000000
      9815       523  HOAC      H3              5.5742887610       19.4669453945       11.5744603230  HOAC      66              0.0000000000
      9816       523  HOAC      O1              7.9806742947       21.2031022736       12.4452255329  HOAC      66              0.0000000000
      9817       523  HOAC      DO1             7.9709749671       21.2196517473       12.4492638996  HOAC      66              0.0000000000
      9818       523  HOAC      O2              5.8566048380       21.5866763256       13.1780386135  HOAC      66              0.0000000000
      9819       523  HOAC      DO2             5.8551185551       21.5658172585       13.1834859164  HOAC      66              0.0000000000
      9820       523  HOAC      H               6.2165484252       22.4800158991       13.2845563129  HOAC      66              0.0000000000
      9821       523  HOAC      LPO11           7.9105533569       21.4750521768       12.5507068308  HOAC      66              0.0000000000
      9822       523  HOAC      LPO12           8.0605460105       20.9345461695       12.3379962087  HOAC      66              0.0000000000
      9823       523  HOAC      LPO21           5.6618835476       21.7303812190       12.9251897996  HOAC      66              0.0000000000
      9824       523  HOAC      LPO22           5.8639745364       21.5770988626       13.5278299224  HOAC      66              0.0000000000
      9825       524  HOAC      C1            -28.5505660135      -35.4301311770      -22.8730409803  HOAC      67              0.0000000000
      9826       524  HOAC      DC1           -28.5529412654      -35.4293092644      -22.8793058213  HOAC      67              0.0000000000
      9827       524  HOAC      C2            -29.9089633763      -34.8752158091      -23.0612295050  HOAC      67              0.0000000000
      9828       524  HOAC      DC2           -29.8885575139      -34.8853259587      -23.0574120222  HOAC      67              0.0000000000
      9829       524  HOAC      H1            -30.4964305791      -34.9419833734      -22.1206204587  HOAC      67              0.0000000000
      9830       524  HOAC      H2            -30.4351394107      -35.4385890747      -23.8612734700  HOAC      67              0.0000000000
      9831       524  HOAC      H3            -29.8237414617      -33.8120495616      -23.3722532277  HOAC      67              0.0000000000
      9832       524  HOAC      O1            -27.9505414983      -36.0554354141      -23.7274987942  HOAC      67              0.0000000000
      9833       524  HOAC      DO1           -27.9402061772      -36.0445070583      -23.7086430187  HOAC      67              0.0000000000
      9834       524  HOAC      O2            -27.9892061890      -35.1173492073      -21.6699751986  HOAC      67              0.0000000000
      9835       524  HOAC      DO2           -27.9973900965      -35.1111160704      -21.6730563718  HOAC      67              0.0000000000
      9836       524  HOAC      H             -27.1208118249      -35.5472108869      -21.6615392742  HOAC      67              0.0000000000
      9837       524  HOAC      LPO11         -27.7084744596      -36.0741438990      -23.5512786440  HOAC      67              0.0000000000
      9838       524  HOAC      LPO12         -28.1874458175      -36.0421071601      -23.9110708542  HOAC      67              0.0000000000
      9839       524  HOAC      LPO21         -27.8087434011      -34.8181577955      -21.6904124503  HOAC      67              0.0000000000
      9840       524  HOAC      LPO22         -28.0761873622      -35.3532612976      -21.4265008444  HOAC      67              0.0000000000
      9841       525  HOAC      C1             28.2019799634      -21.4411368969       24.5454911065  HOAC      68              0.0000000000
      9842       525  HOAC      DC1            28.2046684670      -21.4333964002       24.5506051061  HOAC      68              0.0000000000
      9843       525  HOAC      C2             28.9602033386      -22.6637863584       24.1686934635  HOAC      68              0.0000000000
      9844       525  HOAC      DC2            28.9200169928      -22.6406997934       24.1735462925  HOAC      68              0.0000000000
      9845       525  HOAC      H1             28.4554612330      -23.5673421022       24.5726036333  HOAC      68              0.0000000000
      9846       525  HOAC      H2             29.9967796044      -22.6379832729       24.5676481551  HOAC      68              0.0000000000
      9847       525  HOAC      H3             29.0083466895      -22.7470095179       23.0618614413  HOAC      68              0.0000000000
      9848       525  HOAC      O1             28.6053430832      -20.4625344116       25.1643788382  HOAC      68              0.0000000000
      9849       525  HOAC      DO1            28.5679962171      -20.4461363989       25.1476178789  HOAC      68              0.0000000000
      9850       525  HOAC      O2             26.9311712930      -21.5106299043       24.0639263564  HOAC      68              0.0000000000
      9851       525  HOAC      DO2            26.9380992996      -21.5085888935       24.0651970788  HOAC      68              0.0000000000
      9852       525  HOAC      H              26.4350290895      -20.7618287245       24.4273829658  HOAC      68              0.0000000000
      9853       525  HOAC      LPO11          28.3386752093      -20.3280741431       25.1359415174  HOAC      68              0.0000000000
      9854       525  HOAC      LPO12          28.8754557841      -20.5886371579       25.1981016227  HOAC      68              0.0000000000
      9855       525  HOAC      LPO21          26.9032534039      -21.3392251505       23.7600497336  HOAC      68              0.0000000000
      9856       525  HOAC      LPO22          26.7285936728      -21.7042383712       24.2736358444  HOAC      68              0.0000000000
      9857       526  HOAC      C1             29.7192163429      -11.0356849005      -32.4340855814  HOAC      69              0.0000000000
      9858       526  HOAC      DC1            29.7314312813      -11.0351651324      -32.4291271308  HOAC      69              0.0000000000
      9859       526  HOAC      C2             30.8285687155      -10.7608710182      -33.3875839494  HOAC      69              0.0000000000
      9860       526  HOAC      DC2            30.8205416420      -10.7652243843      -33.3777817113  HOAC      69              0.0000000000
      9861       526  HOAC      H1             30.9489214184      -11.6163486944      -34.0861497476  HOAC      69              0.0000000000
      9862       526  HOAC      H2             31.7797692500      -10.6003889876      -32.8364178568  HOAC      69              0.0000000000
      9863       526  HOAC      H3             30.5757390981       -9.8573558900      -33.9826121822  HOAC      69              0.0000000000
      9864       526  HOAC      O1             29.8136425131      -11.0895176706      -31.2146907581  HOAC      69              0.0000000000
      9865       526  HOAC      DO1            29.7924745998      -11.0840336215      -31.2248592857  HOAC      69              0.0000000000
      9866       526  HOAC      O2             28.5494141914      -11.1939367585      -33.1043777550  HOAC      69              0.0000000000
      9867       526  HOAC      DO2            28.5708056744      -11.1917409741      -33.1073509039  HOAC      69              0.0000000000
      9868       526  HOAC      H              27.8541325043      -11.4163882133      -32.4671495967  HOAC      69              0.0000000000
      9869       526  HOAC      LPO11          29.5191319096      -11.1404805361      -31.1888781492  HOAC      69              0.0000000000
      9870       526  HOAC      LPO12          30.1089607905      -11.0390152636      -31.2300732770  HOAC      69              0.0000000000
      9871       526  HOAC      LPO21          28.3789007264      -10.8894906310      -33.1315386403  HOAC      69              0.0000000000
      9872       526  HOAC      LPO22          28.5100552474      -11.5251782549      -33.2103491879  HOAC      69              0.0000000000
      9873       527  HOAC      C1             26.8150987167      -30.1070913256       -0.2181274400  HOAC      70              0.0000000000
      9874       527  HOAC      DC1            26.7965882177      -30.1184724479       -0.2483750069  HOAC      70              0.0000000000
      9875       527  HOAC      C2             26.4044316539      -28.7209595768       -0.6020251867  HOAC      70              0.0000000000
      9876       527  HOAC      DC2            26.3742055498      -28.7488163285       -0.6291629701  HOAC      70              0.0000000000
      9877       527  HOAC      H1             25.4272046772      -28.7586572356       -1.1292133156  HOAC      70              0.0000000000
      9878       527  HOAC      H2             27.1648504686      -28.2547067133       -1.2643638414  HOAC      70              0.0000000000
      9879       527  HOAC      H3             26.2983163083      -28.1010537379        0.3138226646  HOAC      70              0.0000000000
      9880       527  HOAC      O1             27.7218461152      -30.7789206146       -0.6971861974  HOAC      70              0.0000000000
      9881       527  HOAC      DO1            27.6931381546      -30.8089727671       -0.6847582922  HOAC      70              0.0000000000
      9882       527  HOAC      O2             25.7988197938      -30.6841218226        0.4966082322  HOAC      70              0.0000000000
      9883       527  HOAC      DO2            25.7672527201      -30.7016707791        0.4550327712  HOAC      70              0.0000000000
      9884       527  HOAC      H              26.2177027395      -31.3936910993        1.0065195181  HOAC      70              0.0000000000
      9885       527  HOAC      LPO11          27.6005537988      -31.0304161514       -0.5874676076  HOAC      70              0.0000000000
      9886       527  HOAC      LPO12          27.8508831784      -30.5331633327       -0.8109965429  HOAC      70              0.0000000000
      9887       527  HOAC      LPO21          25.7568259669      -30.5243715883        0.8051797493  HOAC      70              0.0000000000
      9888       527  HOAC      LPO22          25.6481442840      -30.9417038652        0.3137192437  HOAC      70              0.0000000000
      9889       528  HOAC      C1              9.9592962355       -9.8912765562       22.3466521685  HOAC      71              0.0000000000
      9890       528  HOAC      DC1             9.9599571461       -9.8946978531       22.3342359818  HOAC      71              0.0000000000
      9891       528  HOAC      C2              9.7702860766      -10.2655759252       20.9315361188  HOAC      71              0.0000000000
      9892       528  HOAC      DC2             9.7819636455      -10.2796210573       20.9474638555  HOAC      71              0.0000000000
      9893       528  HOAC      H1             10.7674410783      -10.5156838826       20.5102892637  HOAC      71              0.0000000000
      9894       528  HOAC      H2              9.3300356824       -9.4158063310       20.3672735672  HOAC      71              0.0000000000
      9895       528  HOAC      H3              9.0890378334      -11.1386801951       20.8425936282  HOAC      71              0.0000000000
      9896       528  HOAC      O1              9.8300593216       -8.7730701806       22.8068771426  HOAC      71              0.0000000000
      9897       528  HOAC      DO1             9.8417608991       -8.7973789214       22.8118313448  HOAC      71              0.0000000000
      9898       528  HOAC      O2             10.3827280797      -10.9688490492       23.0587022319  HOAC      71              0.0000000000
      9899       528  HOAC      DO2            10.3696450414      -10.9772822988       23.0290003705  HOAC      71              0.0000000000
      9900       528  HOAC      H              10.5367447902      -10.6825180265       23.9715299256  HOAC      71              0.0000000000
      9901       528  HOAC      LPO11           9.9208835172       -8.8678965577       23.0766157637  HOAC      71              0.0000000000
      9902       528  HOAC      LPO12           9.7381223070       -8.6686152754       22.5411013760  HOAC      71              0.0000000000
      9903       528  HOAC      LPO21          10.1113446834      -11.1433260904       23.1943813177  HOAC      71              0.0000000000
      9904       528  HOAC      LPO22          10.7311516745      -10.9988272719       23.0444788450  HOAC      71              0.0000000000
      9905       529  HOAC      C1              6.7885813675      -27.7251342254       21.2597345839  HOAC      72              0.0000000000
      9906       529  HOAC      DC1             6.7932542616      -27.7264010710       21.2429430938  HOAC      72              0.0000000000
      9907       529  HOAC      C2              8.1312539355      -28.0225708741       21.8241480411  HOAC      72              0.0000000000
      9908       529  HOAC      DC2             8.1128364754      -28.0146734824       21.7974450896  HOAC      72              0.0000000000
      9909       529  HOAC      H1              8.4143026055      -27.2221955514       22.5408096029  HOAC      72              0.0000000000
      9910       529  HOAC      H2              8.8956025545      -28.0868669069       21.0204327876  HOAC      72              0.0000000000
      9911       529  HOAC      H3              8.1020863208      -28.9912388688       22.3674274980  HOAC      72              0.0000000000
      9912       529  HOAC      O1              6.5533360783      -27.4603122459       20.0848747604  HOAC      72              0.0000000000
      9913       529  HOAC      DO1             6.5439636844      -27.4639209804       20.0916887460  HOAC      72              0.0000000000
      9914       529  HOAC      O2              5.8195327979      -27.8127267088       22.2066731035  HOAC      72              0.0000000000
      9915       529  HOAC      DO2             5.8274114513      -27.8129848735       22.1995149220  HOAC      72              0.0000000000
      9916       529  HOAC      H               4.9675550809      -27.6332028301       21.7813894960  HOAC      72              0.0000000000
      9917       529  HOAC      LPO11           6.2596583943      -27.4401982138       20.1427439550  HOAC      72              0.0000000000
      9918       529  HOAC      LPO12           6.8450062940      -27.4781664167       20.0169798871  HOAC      72              0.0000000000
      9919       529  HOAC      LPO21           5.6996794545      -28.1405325223       22.2327216107  HOAC      72              0.0000000000
      9920       529  HOAC      LPO22           5.7690577175      -27.5034943705       22.3626462654  HOAC      72              0.0000000000
      9921       530  HOAC      C1            -33.4779549794       26.6553135710       19.3204603791  HOAC      73              0.0000000000
      9922       530  HOAC      DC1           -33.4826007929       26.6607308211       19.3190162104  HOAC      73              0.0000000000
      9923       530  HOAC      C2            -34.8250964372       26.1968191403       19.7674405256  HOAC      73              0.0000000000
      9924       530  HOAC      DC2           -34.8042259044       26.2034807626       19.7616464556  HOAC      73              0.0000000000
      9925       530  HOAC      H1            -35.2312328756       25.4808690530       19.0212571246  HOAC      73              0.0000000000
      9926       530  HOAC      H2            -35.5199098633       27.0574464586       19.8717282166  HOAC      73              0.0000000000
      9927       530  HOAC      H3            -34.7497150312       25.6788946379       20.7474368794  HOAC      73              0.0000000000
      9928       530  HOAC      O1            -33.1613182606       27.7906629271       18.9803662388  HOAC      73              0.0000000000
      9929       530  HOAC      DO1           -33.1346399678       27.7708167923       18.9701667389  HOAC      73              0.0000000000
      9930       530  HOAC      O2            -32.5966028133       25.6145564375       19.3027265095  HOAC      73              0.0000000000
      9931       530  HOAC      DO2           -32.6010289838       25.6200868262       19.3087509861  HOAC      73              0.0000000000
      9932       530  HOAC      H             -31.7394047367       25.9663235956       19.0191205787  HOAC      73              0.0000000000
      9933       530  HOAC      LPO11         -32.8812734770       27.7005928091       18.9215249862  HOAC      73              0.0000000000
      9934       530  HOAC      LPO12         -33.4386602803       27.8904242182       19.0363044985  HOAC      73              0.0000000000
      9935       530  HOAC      LPO21         -32.4419413707       25.5765914096       19.6143970003  HOAC      73              0.0000000000
      9936       530  HOAC      LPO22         -32.5981716108       25.4549076165       18.9912625584  HOAC      73              0.0000000000
      9937       531  HOAC      C1             32.1523311608       14.9179846687       32.6213891488  HOAC      74              0.0000000000
      9938       531  HOAC      DC1            32.1401719755       14.9186869086       32.6060089440  HOAC      74              0.0000000000
      9939       531  HOAC      C2             32.4633520095       13.4714377165       32.5585214283  HOAC      74              0.0000000000
      9940       531  HOAC      DC2            32.4678498600       13.4991411949       32.5538855651  HOAC      74              0.0000000000
      9941       531  HOAC      H1             33.2964111007       13.2936172409       31.8452799337  HOAC      74              0.0000000000
      9942       531  HOAC      H2             31.5813943656       12.8835645989       32.2255395791  HOAC      74              0.0000000000
      9943       531  HOAC      H3             32.7494475329       13.1249038871       33.5745847421  HOAC      74              0.0000000000
      9944       531  HOAC      O1             31.0580366636       15.4135033383       32.3884758805  HOAC      74              0.0000000000
      9945       531  HOAC      DO1            31.0687613402       15.4285841886       32.3726133324  HOAC      74              0.0000000000
      9946       531  HOAC      O2             33.2842006463       15.6570581687       32.8250303021  HOAC      74              0.0000000000
      9947       531  HOAC      DO2            33.2936324501       15.6401426086       32.8029975391  HOAC      74              0.0000000000
      9948       531  HOAC      H              33.0109189559       16.5637371574       33.0304842608  HOAC      74              0.0000000000
      9949       531  HOAC      LPO11          31.1740949973       15.6897425585       32.4033875003  HOAC      74              0.0000000000
      9950       531  HOAC      LPO12          30.9326136908       15.1415046160       32.3715710600  HOAC      74              0.0000000000
      9951       531  HOAC      LPO21          33.3822808512       15.6452826440       33.1608004771  HOAC      74              0.0000000000
      9952       531  HOAC      LPO22          33.3992701603       15.7945982002       32.5244612641  HOAC      74              0.0000000000
      9953       532  HOAC      C1              4.4633788638       -1.7306874597       -9.3182220593  HOAC      75              0.0000000000
      9954       532  HOAC      DC1             4.4739078271       -1.7416043777       -9.3131314231  HOAC      75              0.0000000000
      9955       532  HOAC      C2              5.5000341882       -1.1291052256      -10.2095026225  HOAC      75              0.0000000000
      9956       532  HOAC      DC2             5.4824376389       -1.1379226929      -10.1893700017  HOAC      75              0.0000000000
      9957       532  HOAC      H1              5.2794860962       -1.3974212881      -11.2648158606  HOAC      75              0.0000000000
      9958       532  HOAC      H2              6.5092887992       -1.5175959998       -9.9549421218  HOAC      75              0.0000000000
      9959       532  HOAC      H3              5.5031546542       -0.0218855025      -10.1179835026  HOAC      75              0.0000000000
      9960       532  HOAC      O1              4.6604700936       -2.6049363175       -8.4820678730  HOAC      75              0.0000000000
      9961       532  HOAC      DO1             4.6346665455       -2.6097543657       -8.4824214518  HOAC      75              0.0000000000
      9962       532  HOAC      O2              3.2225255950       -1.2501475809       -9.6091511076  HOAC      75              0.0000000000
      9963       532  HOAC      DO2             3.2423992081       -1.2554442017       -9.6350830191  HOAC      75              0.0000000000
      9964       532  HOAC      H               2.5891847680       -1.5983284836       -8.9636974254  HOAC      75              0.0000000000
      9965       532  HOAC      LPO11           4.3669492080       -2.6212196090       -8.4222318964  HOAC      75              0.0000000000
      9966       532  HOAC      LPO12           4.9556747933       -2.5961220163       -8.5347603145  HOAC      75              0.0000000000
      9967       532  HOAC      LPO21           3.1656644238       -0.9450745675       -9.4472954196  HOAC      75              0.0000000000
      9968       532  HOAC      LPO22           3.0561976212       -1.4613924595       -9.8332283407  HOAC      75              0.0000000000
      9969       533  HOAC      C1            -33.8360466516        7.8544036828      -32.3792546309  HOAC      76              0.0000000000
      9970       533  HOAC      DC1           -33.8309278893        7.8492437864      -32.3818172253  HOAC      76              0.0000000000
      9971       533  HOAC      C2            -32.6614466054        8.0688223266      -33.2701757398  HOAC      76              0.0000000000
      9972       533  HOAC      DC2           -32.6769424374        8.0775534785      -33.2561271717  HOAC      76              0.0000000000
      9973       533  HOAC      H1            -32.9118875533        8.8378698799      -34.0318621532  HOAC      76              0.0000000000
      9974       533  HOAC      H2            -32.3817641971        7.1191919916      -33.7744583781  HOAC      76              0.0000000000
      9975       533  HOAC      H3            -31.7903978418        8.4238821599      -32.6789671737  HOAC      76              0.0000000000
      9976       533  HOAC      O1            -34.4078481210        6.7923536992      -32.1731170104  HOAC      76              0.0000000000
      9977       533  HOAC      DO1           -34.4171963245        6.8168319018      -32.1591096270  HOAC      76              0.0000000000
      9978       533  HOAC      O2            -34.2112847287        9.0207366167      -31.7828472683  HOAC      76              0.0000000000
      9979       533  HOAC      DO2           -34.2006092551        9.0163358382      -31.7897091362  HOAC      76              0.0000000000
      9980       533  HOAC      H             -34.9765168718        8.8269827329      -31.2208506494  HOAC      76              0.0000000000
      9981       533  HOAC      LPO11         -34.5985018257        6.9257247771      -31.9837408755  HOAC      76              0.0000000000
      9982       533  HOAC      LPO12         -34.2220875033        6.6498943217      -32.3607291600  HOAC      76              0.0000000000
      9983       533  HOAC      LPO21         -34.0413093475        9.0666153860      -31.4803518001  HOAC      76              0.0000000000
      9984       533  HOAC      LPO22         -34.4415654440        9.1940627171      -31.9814142723  HOAC      76              0.0000000000
      9985       534  HOAC      C1             14.5090678354       -8.6407424129      -29.2590129647  HOAC      77              0.0000000000
      9986       534  HOAC      DC1            14.5055719169       -8.6429584360      -29.2552340553  HOAC      77              0.0000000000
      9987       534  HOAC      C2             15.5286275643       -7.6926478000      -29.7394749336  HOAC      77              0.0000000000
      9988       534  HOAC      DC2            15.4852747552       -7.7072289490      -29.7119337915  HOAC      77              0.0000000000
      9989       534  HOAC      H1             15.1517729198       -7.1764219922      -30.6482171917  HOAC      77              0.0000000000
      9990       534  HOAC      H2             16.4725885508       -8.2175233354      -29.9997907575  HOAC      77              0.0000000000
      9991       534  HOAC      H3             15.7499888060       -6.9376136508      -28.9551002565  HOAC      77              0.0000000000
      9992       534  HOAC      O1             14.6102256527       -9.8576512316      -29.2080539862  HOAC      77              0.0000000000
      9993       534  HOAC      DO1            14.5740958843       -9.8458395320      -29.2160300040  HOAC      77              0.0000000000
      9994       534  HOAC      O2             13.3614077789       -7.9892638061      -28.8954766213  HOAC      77              0.0000000000
      9995       534  HOAC      DO2            13.3624934864       -7.9740750151      -28.8958731170  HOAC      77              0.0000000000
      9996       534  HOAC      H              12.7548287682       -8.6847603666      -28.5999983004  HOAC      77              0.0000000000
      9997       534  HOAC      LPO11          14.3292136996       -9.8819905418      -29.1058782542  HOAC      77              0.0000000000
      9998       534  HOAC      LPO12          14.8921043177       -9.8437382973      -29.3097931058  HOAC      77              0.0000000000
      9999       534  HOAC      LPO21          13.3729247018       -7.8945408394      -28.5587349992  HOAC      77              0.0000000000
     10000       534  HOAC      LPO22          13.1453091579       -7.9551559589      -29.1686762567  HOAC      77              0.0000000000
     10001       535  HOAC      C1             11.2434776689       30.1224993659       -4.8795713895  HOAC      78              0.0000000000
     10002       535  HOAC      DC1            11.2417091048       30.1473011378       -4.8959556447  HOAC      78              0.0000000000
     10003       535  HOAC      C2             12.2788315053       31.1993349850       -4.7912866797  HOAC      78              0.0000000000
     10004       535  HOAC      DC2            12.2723954554       31.2169057608       -4.8119643108  HOAC      78              0.0000000000
     10005       535  HOAC      H1             12.4194538908       31.4972652011       -3.7302570236  HOAC      78              0.0000000000
     10006       535  HOAC      H2             11.9587456114       32.0772318870       -5.3922551077  HOAC      78              0.0000000000
     10007       535  HOAC      H3             13.2402125522       30.8050239947       -5.1844613559  HOAC      78              0.0000000000
     10008       535  HOAC      O1             10.2717467865       30.1719673369       -5.6219988363  HOAC      78              0.0000000000
     10009       535  HOAC      DO1            10.2790068904       30.1591749137       -5.6135859147  HOAC      78              0.0000000000
     10010       535  HOAC      O2             11.5206968452       29.0776552214       -4.0784650804  HOAC      78              0.0000000000
     10011       535  HOAC      DO2            11.5058644290       29.1077688645       -4.1011535474  HOAC      78              0.0000000000
     10012       535  HOAC      H              10.8670234593       28.3683874298       -4.1712621951  HOAC      78              0.0000000000
     10013       535  HOAC      LPO11          10.1825809468       29.9000156461       -5.5320447878  HOAC      78              0.0000000000
     10014       535  HOAC      LPO12          10.3525986224       30.4443422694       -5.7183049981  HOAC      78              0.0000000000
     10015       535  HOAC      LPO21          11.7307570306       28.8488832844       -4.2398283952  HOAC      78              0.0000000000
     10016       535  HOAC      LPO22          11.3713267504       29.1179527304       -3.7645149481  HOAC      78              0.0000000000
     10017       536  HOAC      C1              1.2656169180        0.0289369878       16.1183454960  HOAC      79              0.0000000000
     10018       536  HOAC      DC1             1.2552564379        0.0207600933       16.1168703300  HOAC      79              0.0000000000
     10019       536  HOAC      C2              2.2863767600        1.0376375230       16.4736251466  HOAC      79              0.0000000000
     10020       536  HOAC      DC2             2.2535602855        0.9895356831       16.4456484785  HOAC      79              0.0000000000
     10021       536  HOAC      H1              3.2989393017        0.5804531119       16.4781543174  HOAC      79              0.0000000000
     10022       536  HOAC      H2              2.0953687409        1.4621753193       17.4823890427  HOAC      79              0.0000000000
     10023       536  HOAC      H3              2.2751942878        1.8703121615       15.7382008478  HOAC      79              0.0000000000
     10024       536  HOAC      O1              0.2942167937       -0.3215855982       16.7781585387  HOAC      79              0.0000000000
     10025       536  HOAC      DO1             0.2938770348       -0.3440412155       16.7471581911  HOAC      79              0.0000000000
     10026       536  HOAC      O2              1.5311299886       -0.5276509352       14.9038022698  HOAC      79              0.0000000000
     10027       536  HOAC      DO2             1.5378346839       -0.5314760029       14.8985369864  HOAC      79              0.0000000000
     10028       536  HOAC      H               0.8219589638       -1.1690362799       14.7467599280  HOAC      79              0.0000000000
     10029       536  HOAC      LPO11           0.2145354976       -0.5182558840       16.5660932429  HOAC      79              0.0000000000
     10030       536  HOAC      LPO12           0.3655978003       -0.1279104107       16.9958617166  HOAC      79              0.0000000000
     10031       536  HOAC      LPO21           1.3821002804       -0.3429557472       14.6465517429  HOAC      79              0.0000000000
     10032       536  HOAC      LPO22           1.7381458912       -0.8078530361       14.9374355683  HOAC      79              0.0000000000
     10033       537  HOAC      C1             12.0121954529       -6.2304214863      -25.1156299268  HOAC      80              0.0000000000
     10034       537  HOAC      DC1            12.0118503715       -6.2123939892      -25.1077268047  HOAC      80              0.0000000000
     10035       537  HOAC      C2             10.8903699459       -5.8116280990      -25.9887961715  HOAC      80              0.0000000000
     10036       537  HOAC      DC2            10.9062477980       -5.8192728756      -25.9723409751  HOAC      80              0.0000000000
     10037       537  HOAC      H1             11.1308201614       -6.0508094297      -27.0467645015  HOAC      80              0.0000000000
     10038       537  HOAC      H2             10.7071338273       -4.7202297791      -25.8908409127  HOAC      80              0.0000000000
     10039       537  HOAC      H3              9.9718652197       -6.3599879442      -25.6888435950  HOAC      80              0.0000000000
     10040       537  HOAC      O1             12.5625368114       -5.5193498970      -24.2878975665  HOAC      80              0.0000000000
     10041       537  HOAC      DO1            12.5776921068       -5.5446367526      -24.2803151859  HOAC      80              0.0000000000
     10042       537  HOAC      O2             12.3244763742       -7.5385908963      -25.3051573214  HOAC      80              0.0000000000
     10043       537  HOAC      DO2            12.3105357200       -7.5168845626      -25.3084476387  HOAC      80              0.0000000000
     10044       537  HOAC      H              13.0512180425       -7.7935225689      -24.7170949184  HOAC      80              0.0000000000
     10045       537  HOAC      LPO11          12.7368275979       -5.7472591830      -24.2002615061  HOAC      80              0.0000000000
     10046       537  HOAC      LPO12          12.3929613956       -5.2853480901      -24.3684415467  HOAC      80              0.0000000000
     10047       537  HOAC      LPO21          12.1330536827       -7.7441711802      -25.0963653195  HOAC      80              0.0000000000
     10048       537  HOAC      LPO22          12.5651604371       -7.5743211859      -25.5567413596  HOAC      80              0.0000000000
     10049       538  HOAC      C1            -27.6538324029       21.6961153056       -5.1719090727  HOAC      81              0.0000000000
     10050       538  HOAC      DC1           -27.6605477943       21.6840919861       -5.1853475980  HOAC      81              0.0000000000
     10051       538  HOAC      C2            -26.7827431905       20.5820493380       -5.6412191703  HOAC      81              0.0000000000
     10052       538  HOAC      DC2           -26.7988398461       20.5863542160       -5.6427617103  HOAC      81              0.0000000000
     10053       538  HOAC      H1            -25.9219382910       20.9870331938       -6.2150867539  HOAC      81              0.0000000000
     10054       538  HOAC      H2            -27.3579194183       19.8743368121       -6.2757554482  HOAC      81              0.0000000000
     10055       538  HOAC      H3            -26.3912189065       20.0442375996       -4.7513943172  HOAC      81              0.0000000000
     10056       538  HOAC      O1            -28.8530577744       21.7998720075       -5.3901806613  HOAC      81              0.0000000000
     10057       538  HOAC      DO1           -28.8432978556       21.8199779873       -5.3831201464  HOAC      81              0.0000000000
     10058       538  HOAC      O2            -26.9352050410       22.5989127125       -4.4609064734  HOAC      81              0.0000000000
     10059       538  HOAC      DO2           -26.9377563151       22.5821140861       -4.4818463423  HOAC      81              0.0000000000
     10060       538  HOAC      H             -27.5241302729       23.2871594063       -4.1167487194  HOAC      81              0.0000000000
     10061       538  HOAC      LPO11         -28.8638525591       22.0579186936       -5.2375524187  HOAC      81              0.0000000000
     10062       538  HOAC      LPO12         -28.8525280580       21.5427134527       -5.5446772538  HOAC      81              0.0000000000
     10063       538  HOAC      LPO21         -26.9114698563       22.5030285649       -4.1251344208  HOAC      81              0.0000000000
     10064       538  HOAC      LPO22         -26.8170023056       22.8552442665       -4.6678418443  HOAC      81              0.0000000000
     10065       539  HOAC      C1             36.3185911501       22.1843984643       12.8522012492  HOAC      82              0.0000000000
     10066       539  HOAC      DC1            36.3035252911       22.1921807459       12.8511015513  HOAC      82              0.0000000000
     10067       539  HOAC      C2             34.9231001394       22.6681544096       12.6604614346  HOAC      82              0.0000000000
     10068       539  HOAC      DC2            34.9184091333       22.6762994703       12.6662833390  HOAC      82              0.0000000000
     10069       539  HOAC      H1             34.6504387967       22.5723829677       11.5877058130  HOAC      82              0.0000000000
     10070       539  HOAC      H2             34.8312712334       23.7252776395       12.9896709862  HOAC      82              0.0000000000
     10071       539  HOAC      H3             34.2501461127       22.0158116743       13.2570373602  HOAC      82              0.0000000000
     10072       539  HOAC      O1             37.2457877936       22.7807608656       13.3762433193  HOAC      82              0.0000000000
     10073       539  HOAC      DO1            37.2345457873       22.7531840044       13.3703684987  HOAC      82              0.0000000000
     10074       539  HOAC      O2             36.3941828714       20.9161526904       12.4153816886  HOAC      82              0.0000000000
     10075       539  HOAC      DO2            36.3716273047       20.9247002089       12.4154532908  HOAC      82              0.0000000000
     10076       539  HOAC      H              37.3214711702       20.6446265352       12.4886685090  HOAC      82              0.0000000000
     10077       539  HOAC      LPO11          37.4233301355       22.5406437200       13.3475645249  HOAC      82              0.0000000000
     10078       539  HOAC      LPO12          37.0761995481       23.0259939960       13.4094176877  HOAC      82              0.0000000000
     10079       539  HOAC      LPO21          36.3400157270       20.6904350685       12.6773310647  HOAC      82              0.0000000000
     10080       539  HOAC      LPO22          36.4511719385       20.9061745295       12.0701966910  HOAC      82              0.0000000000
     10081       540  HOAC      C1            -21.8080495209       35.3745205444       17.7258049499  HOAC      83              0.0000000000
     10082       540  HOAC      DC1           -21.8076104769       35.3720343444       17.7256455675  HOAC      83              0.0000000000
     10083       540  HOAC      C2            -22.3762907092       36.6465770452       18.2438686350  HOAC      83              0.0000000000
     10084       540  HOAC      DC2           -22.3688815990       36.6143799483       18.2367920560  HOAC      83              0.0000000000
     10085       540  HOAC      H1            -23.4859647173       36.5923204644       18.2447748281  HOAC      83              0.0000000000
     10086       540  HOAC      H2            -22.0592515577       37.5010404973       17.6084952139  HOAC      83              0.0000000000
     10087       540  HOAC      H3            -22.0247598536       36.8245036764       19.2826608045  HOAC      83              0.0000000000
     10088       540  HOAC      O1            -21.0986312089       35.2380659128       16.7374228459  HOAC      83              0.0000000000
     10089       540  HOAC      DO1           -21.1066671006       35.2053706474       16.7569155300  HOAC      83              0.0000000000
     10090       540  HOAC      O2            -22.1731081266       34.3034661101       18.4955444267  HOAC      83              0.0000000000
     10091       540  HOAC      DO2           -22.1750631051       34.2993020744       18.4992222649  HOAC      83              0.0000000000
     10092       540  HOAC      H             -21.7650572269       33.5347785620       18.0694283433  HOAC      83              0.0000000000
     10093       540  HOAC      LPO11         -21.0831520637       34.9419418522       16.7829303925  HOAC      83              0.0000000000
     10094       540  HOAC      LPO12         -21.1080424589       35.5330228306       16.6834613320  HOAC      83              0.0000000000
     10095       540  HOAC      LPO21         -21.9416471112       34.2497187628       18.7525211203  HOAC      83              0.0000000000
     10096       540  HOAC      LPO22         -22.4769832638       34.1687425099       18.3859567791  HOAC      83              0.0000000000
     10097       541  HOAC      C1            -20.4258246208      -29.1584437531       24.1567396979  HOAC      84              0.0000000000
     10098       541  HOAC      DC1           -20.4372941933      -29.1749317810       24.1539261798  HOAC      84              0.0000000000
     10099       541  HOAC      C2            -21.1163747846      -30.4695945076       24.2225704366  HOAC      84              0.0000000000
     10100       541  HOAC      DC2           -21.1154364281      -30.4715493172       24.2043732751  HOAC      84              0.0000000000
     10101       541  HOAC      H1            -21.9602039793      -30.4165234464       24.9433039190  HOAC      84              0.0000000000
     10102       541  HOAC      H2            -20.3850110370      -31.2209480962       24.5898521473  HOAC      84              0.0000000000
     10103       541  HOAC      H3            -21.4827837607      -30.7632909230       23.2156901665  HOAC      84              0.0000000000
     10104       541  HOAC      O1            -19.2958721928      -28.9776938282       24.5520320733  HOAC      84              0.0000000000
     10105       541  HOAC      DO1           -19.3251129039      -28.9739883831       24.5368795720  HOAC      84              0.0000000000
     10106       541  HOAC      O2            -21.1841722330      -28.1876769406       23.5920684163  HOAC      84              0.0000000000
     10107       541  HOAC      DO2           -21.1963933203      -28.2146006782       23.5997143106  HOAC      84              0.0000000000
     10108       541  HOAC      H             -20.6771608073      -27.3620150278       23.6055895076  HOAC      84              0.0000000000
     10109       541  HOAC      LPO11         -19.3071553806      -28.6897352873       24.4686500105  HOAC      84              0.0000000000
     10110       541  HOAC      LPO12         -19.2748157021      -29.2640890080       24.6388331403  HOAC      84              0.0000000000
     10111       541  HOAC      LPO21         -21.1326309268      -28.1743387327       23.2461412766  HOAC      84              0.0000000000
     10112       541  HOAC      LPO22         -21.3838403546      -28.0296769274       23.8322113676  HOAC      84              0.0000000000
     10113       542  HOAC      C1             10.9891332933      -34.6795708219      -25.9394358851  HOAC      85              0.0000000000
     10114       542  HOAC      DC1            10.9886787181      -34.6783092196      -25.9307637383  HOAC      85              0.0000000000
     10115       542  HOAC      C2             10.5168364949      -33.9878611268      -24.6982194660  HOAC      85              0.0000000000
     10116       542  HOAC      DC2            10.5299046277      -34.0042874392      -24.6825047009  HOAC      85              0.0000000000
     10117       542  HOAC      H1              9.6379658796      -34.5280179804      -24.2857415695  HOAC      85              0.0000000000
     10118       542  HOAC      H2             10.1862191391      -32.9533162782      -24.9321641646  HOAC      85              0.0000000000
     10119       542  HOAC      H3             11.3397346563      -33.9601118453      -23.9523041934  HOAC      85              0.0000000000
     10120       542  HOAC      O1             11.0878913034      -34.1947279133      -27.0569552703  HOAC      85              0.0000000000
     10121       542  HOAC      DO1            11.0939043575      -34.2243526630      -27.0470409738  HOAC      85              0.0000000000
     10122       542  HOAC      O2             11.3263735114      -35.9759747790      -25.6733083823  HOAC      85              0.0000000000
     10123       542  HOAC      DO2            11.3226183738      -35.9720791063      -25.6530922234  HOAC      85              0.0000000000
     10124       542  HOAC      H              11.5803005080      -36.3747859839      -26.5191403415  HOAC      85              0.0000000000
     10125       542  HOAC      LPO11          11.1913111112      -34.4543020657      -27.1661596785  HOAC      85              0.0000000000
     10126       542  HOAC      LPO12          10.9853176524      -33.9309996364      -26.9573257461  HOAC      85              0.0000000000
     10127       542  HOAC      LPO21          11.6660474115      -36.0027180644      -25.5932681535  HOAC      85              0.0000000000
     10128       542  HOAC      LPO22          11.0460806689      -36.1845961021      -25.6936324075  HOAC      85              0.0000000000
     10129       543  HOAC      C1             -8.5948104969       21.0371572481       33.9434864701  HOAC      86              0.0000000000
     10130       543  HOAC      DC1            -8.5905125835       21.0358633773       33.9458737770  HOAC      86              0.0000000000
     10131       543  HOAC      C2             -9.9763312640       21.4421637133       34.3163225619  HOAC      86              0.0000000000
     10132       543  HOAC      DC2            -9.9498738179       21.4401449294       34.3054585183  HOAC      86              0.0000000000
     10133       543  HOAC      H1            -10.1408873120       22.5080629560       34.0496746454  HOAC      86              0.0000000000
     10134       543  HOAC      H2            -10.1396534985       21.3029857618       35.4064034522  HOAC      86              0.0000000000
     10135       543  HOAC      H3            -10.7132787922       20.8183549719       33.7666936002  HOAC      86              0.0000000000
     10136       543  HOAC      O1             -7.7072604809       20.6573001104       34.6978374627  HOAC      86              0.0000000000
     10137       543  HOAC      DO1            -7.6968655075       20.6541520999       34.6623011996  HOAC      86              0.0000000000
     10138       543  HOAC      O2             -8.3987585581       21.1370790905       32.5961295344  HOAC      86              0.0000000000
     10139       543  HOAC      DO2            -8.4028124023       21.1381153630       32.5984537736  HOAC      86              0.0000000000
     10140       543  HOAC      H              -7.4850548413       20.8603346307       32.4302409516  HOAC      86              0.0000000000
     10141       543  HOAC      LPO11          -7.5183079075       20.6239324730       34.4672219259  HOAC      86              0.0000000000
     10142       543  HOAC      LPO12          -7.8886273272       20.6874211785       34.9349002989  HOAC      86              0.0000000000
     10143       543  HOAC      LPO21          -8.4865571376       20.8391737682       32.4347485307  HOAC      86              0.0000000000
     10144       543  HOAC      LPO22          -8.2858366212       21.4569074172       32.5097670563  HOAC      86              0.0000000000
     10145       544  HOAC      C1             -0.5151458067       -4.0042105456       23.3319510320  HOAC      87              0.0000000000
     10146       544  HOAC      DC1            -0.5113071754       -4.0034369427       23.3308449742  HOAC      87              0.0000000000
     10147       544  HOAC      C2              0.4109099914       -2.8862984592       23.6360983777  HOAC      87              0.0000000000
     10148       544  HOAC      DC2             0.3997339856       -2.9140444991       23.6304103476  HOAC      87              0.0000000000
     10149       544  HOAC      H1              0.3858371456       -2.6662302214       24.7247959132  HOAC      87              0.0000000000
     10150       544  HOAC      H2              0.1173231150       -1.9728044559       23.0760479763  HOAC      87              0.0000000000
     10151       544  HOAC      H3              1.4500686879       -3.1626682850       23.3566526319  HOAC      87              0.0000000000
     10152       544  HOAC      O1             -1.5187337936       -3.9523078435       22.6355457932  HOAC      87              0.0000000000
     10153       544  HOAC      DO1            -1.5047136350       -3.9819158251       22.6474485269  HOAC      87              0.0000000000
     10154       544  HOAC      O2             -0.0967998901       -5.1611718889       23.9224683230  HOAC      87              0.0000000000
     10155       544  HOAC      DO2            -0.0886120211       -5.1564265214       23.9223575230  HOAC      87              0.0000000000
     10156       544  HOAC      H              -0.7555627536       -5.8345520863       23.6954185500  HOAC      87              0.0000000000
     10157       544  HOAC      LPO11          -1.5698103056       -4.2448406147       22.6781576188  HOAC      87              0.0000000000
     10158       544  HOAC      LPO12          -1.4762525874       -3.6593305476       22.5869695520  HOAC      87              0.0000000000
     10159       544  HOAC      LPO21           0.1160466444       -5.3400102411       23.7098343734  HOAC      87              0.0000000000
     10160       544  HOAC      LPO22          -0.2239952753       -5.1885996869       24.2473822345  HOAC      87              0.0000000000
     10161       545  HOAC      C1             -1.7700100150       26.6396673157      -24.1860772690  HOAC      88              0.0000000000
     10162       545  HOAC      DC1            -1.7549758330       26.6495040408      -24.1831103558  HOAC      88              0.0000000000
     10163       545  HOAC      C2             -0.2874023171       26.5389309188      -24.2728830119  HOAC      88              0.0000000000
     10164       545  HOAC      DC2            -0.2981104820       26.5427543665      -24.2691565084  HOAC      88              0.0000000000
     10165       545  HOAC      H1              0.0622824011       25.6837004866      -23.6559368994  HOAC      88              0.0000000000
     10166       545  HOAC      H2              0.1867997225       27.4713416519      -23.8986322245  HOAC      88              0.0000000000
     10167       545  HOAC      H3              0.0096538824       26.3666077129      -25.3294734375  HOAC      88              0.0000000000
     10168       545  HOAC      O1             -2.3919764991       27.6228817930      -23.8140469342  HOAC      88              0.0000000000
     10169       545  HOAC      DO1            -2.3971305495       27.6028215312      -23.8216174222  HOAC      88              0.0000000000
     10170       545  HOAC      O2             -2.3454047355       25.4750101289      -24.5650787478  HOAC      88              0.0000000000
     10171       545  HOAC      DO2            -2.3244270683       25.4878266634      -24.5565293163  HOAC      88              0.0000000000
     10172       545  HOAC      H              -3.3096957443       25.5668918988      -24.5393573425  HOAC      88              0.0000000000
     10173       545  HOAC      LPO11          -2.6524547404       27.4789640263      -23.8519779535  HOAC      88              0.0000000000
     10174       545  HOAC      LPO12          -2.1368303177       27.7752285647      -23.7729265341  HOAC      88              0.0000000000
     10175       545  HOAC      LPO21          -2.3920436590       25.4658220721      -24.9118357094  HOAC      88              0.0000000000
     10176       545  HOAC      LPO22          -2.3946183489       25.2646447055      -24.2897164248  HOAC      88              0.0000000000
     10177       546  HOAC      C1            -15.3539133778      -23.0607696163       11.4504518456  HOAC      89              0.0000000000
     10178       546  HOAC      DC1           -15.3369047554      -23.0553692626       11.4299853264  HOAC      89              0.0000000000
     10179       546  HOAC      C2            -14.5934313580      -21.8008257448       11.1820502620  HOAC      89              0.0000000000
     10180       546  HOAC      DC2           -14.5861203086      -21.7937893681       11.1499099173  HOAC      89              0.0000000000
     10181       546  HOAC      H1            -13.5612654486      -21.9034577958       11.5800718676  HOAC      89              0.0000000000
     10182       546  HOAC      H2            -15.0974606737      -20.9541811616       11.6953419905  HOAC      89              0.0000000000
     10183       546  HOAC      H3            -14.5682961060      -21.6165224958       10.0867322563  HOAC      89              0.0000000000
     10184       546  HOAC      O1            -16.4240838444      -23.1406211371       12.0239543847  HOAC      89              0.0000000000
     10185       546  HOAC      DO1           -16.3950172832      -23.1597203011       11.9968595986  HOAC      89              0.0000000000
     10186       546  HOAC      O2            -14.7606208165      -24.1509850998       10.8595568615  HOAC      89              0.0000000000
     10187       546  HOAC      DO2           -14.7386051862      -24.1489296881       10.8427156325  HOAC      89              0.0000000000
     10188       546  HOAC      H             -15.3632051892      -24.8788039220       11.0743424192  HOAC      89              0.0000000000
     10189       546  HOAC      LPO11         -16.4409556466      -23.4338275212       11.9627550495  HOAC      89              0.0000000000
     10190       546  HOAC      LPO12         -16.4164218070      -22.8481019461       12.0900892173  HOAC      89              0.0000000000
     10191       546  HOAC      LPO21         -14.8700896947      -24.1889932144       10.5292964371  HOAC      89              0.0000000000
     10192       546  HOAC      LPO22         -14.5349059118      -24.3043667350       11.0787071654  HOAC      89              0.0000000000
     10193       547  HOAC      C1            -35.4241033734       -4.7273376300       33.8349505603  HOAC      90              0.0000000000
     10194       547  HOAC      DC1           -35.4249446869       -4.7366544696       33.8351154725  HOAC      90              0.0000000000
     10195       547  HOAC      C2            -35.6638758303       -6.0561339958       34.4683519550  HOAC      90              0.0000000000
     10196       547  HOAC      DC2           -35.6649276739       -6.0435099418       34.4743118846  HOAC      90              0.0000000000
     10197       547  HOAC      H1            -35.0628918375       -6.1328082555       35.3996200680  HOAC      90              0.0000000000
     10198       547  HOAC      H2            -35.3681673352       -6.8707998010       33.7732281437  HOAC      90              0.0000000000
     10199       547  HOAC      H3            -36.7425086073       -6.1596639310       34.7136148484  HOAC      90              0.0000000000
     10200       547  HOAC      O1            -35.0108886303       -4.5307820009       32.7009297930  HOAC      90              0.0000000000
     10201       547  HOAC      DO1           -35.0165369857       -4.5147647795       32.7189388396  HOAC      90              0.0000000000
     10202       547  HOAC      O2            -35.7307603820       -3.7247355988       34.7049160013  HOAC      90              0.0000000000
     10203       547  HOAC      DO2           -35.7368162583       -3.7431254693       34.7146263443  HOAC      90              0.0000000000
     10204       547  HOAC      H             -35.5973931074       -2.8883211112       34.2341878684  HOAC      90              0.0000000000
     10205       547  HOAC      LPO11         -35.0232185185       -4.2338970278       32.7422491178  HOAC      90              0.0000000000
     10206       547  HOAC      LPO12         -34.9950203490       -4.8259838514       32.6498997520  HOAC      90              0.0000000000
     10207       547  HOAC      LPO21         -36.0708912763       -3.6440511126       34.6875669838  HOAC      90              0.0000000000
     10208       547  HOAC      LPO22         -35.4492715908       -3.6293723427       34.8897670489  HOAC      90              0.0000000000
     10209       548  HOAC      C1             24.5532387068      -13.3124908707       -2.4549180387  HOAC      91              0.0000000000
     10210       548  HOAC      DC1            24.5358123028      -13.3033129258       -2.4844433690  HOAC      91              0.0000000000
     10211       548  HOAC      C2             24.9704587446      -11.9358216709       -2.8718736910  HOAC      91              0.0000000000
     10212       548  HOAC      DC2            24.9655342190      -11.9364083391       -2.8911778526  HOAC      91              0.0000000000
     10213       548  HOAC      H1             25.0993096889      -11.2863783156       -1.9797180080  HOAC      91              0.0000000000
     10214       548  HOAC      H2             24.2005443302      -11.4920457218       -3.5386687881  HOAC      91              0.0000000000
     10215       548  HOAC      H3             25.9478047323      -11.9992533888       -3.3963660538  HOAC      91              0.0000000000
     10216       548  HOAC      O1             23.5354032236      -13.8813721839       -2.8366586968  HOAC      91              0.0000000000
     10217       548  HOAC      DO1            23.5417268488      -13.8929450569       -2.8331576152  HOAC      91              0.0000000000
     10218       548  HOAC      O2             25.5276916250      -13.8908394417       -1.7203672676  HOAC      91              0.0000000000
     10219       548  HOAC      DO2            25.5187153069      -13.8639323108       -1.7570038132  HOAC      91              0.0000000000
     10220       548  HOAC      H              25.2416961718      -14.7418922884       -1.3558447677  HOAC      91              0.0000000000
     10221       548  HOAC      LPO11          23.6220247239      -14.1363601151       -2.7044547989  HOAC      91              0.0000000000
     10222       548  HOAC      LPO12          23.4400947854      -13.6312394937       -2.9721206432  HOAC      91              0.0000000000
     10223       548  HOAC      LPO21          25.7325430923      -14.0917645418       -1.9207792945  HOAC      91              0.0000000000
     10224       548  HOAC      LPO22          25.5099145894      -13.7880159287       -1.3862844902  HOAC      91              0.0000000000
     10225       549  HOAC      C1            -33.3471498178      -14.9101203995       19.4893170615  HOAC      92              0.0000000000
     10226       549  HOAC      DC1           -33.3569281035      -14.9033920823       19.4842443466  HOAC      92              0.0000000000
     10227       549  HOAC      C2            -34.5836765055      -14.0989460953       19.3116309297  HOAC      92              0.0000000000
     10228       549  HOAC      DC2           -34.5933614426      -14.1060587042       19.3114922989  HOAC      92              0.0000000000
     10229       549  HOAC      H1            -35.2546210822      -14.6100866143       18.5885197731  HOAC      92              0.0000000000
     10230       549  HOAC      H2            -34.3146040572      -13.0937211209       18.9224731608  HOAC      92              0.0000000000
     10231       549  HOAC      H3            -35.0935745761      -13.9897680317       20.2926534116  HOAC      92              0.0000000000
     10232       549  HOAC      O1            -32.2171709878      -14.5387295248       19.2186379133  HOAC      92              0.0000000000
     10233       549  HOAC      DO1           -32.2321155414      -14.5573324954       19.2161449675  HOAC      92              0.0000000000
     10234       549  HOAC      O2            -33.6437723672      -16.1559041593       19.9551264206  HOAC      92              0.0000000000
     10235       549  HOAC      DO2           -33.6593008399      -16.1437361249       19.9509897703  HOAC      92              0.0000000000
     10236       549  HOAC      H             -32.8082978624      -16.6369360384       20.0528591336  HOAC      92              0.0000000000
     10237       549  HOAC      LPO11         -32.1050864006      -14.8059435569       19.2963148491  HOAC      92              0.0000000000
     10238       549  HOAC      LPO12         -32.3195556577      -14.2683274145       19.1386374249  HOAC      92              0.0000000000
     10239       549  HOAC      LPO21         -33.6499407763      -16.1601732761       20.3050460191  HOAC      92              0.0000000000
     10240       549  HOAC      LPO22         -33.7030611578      -16.3772756722       19.6905900477  HOAC      92              0.0000000000
     10241       550  HOAC      C1            -23.2153005310        4.1526112410        7.9955452362  HOAC      93              0.0000000000
     10242       550  HOAC      DC1           -23.2364050328        4.1553327063        7.9633597157  HOAC      93              0.0000000000
     10243       550  HOAC      C2            -22.9452473645        2.8395741479        7.3386974989  HOAC      93              0.0000000000
     10244       550  HOAC      DC2           -22.9591545584        2.8452358949        7.3089105081  HOAC      93              0.0000000000
     10245       550  HOAC      H1            -21.8451546780        2.7254940061        7.2333276624  HOAC      93              0.0000000000
     10246       550  HOAC      H2            -23.4254299386        2.7790238325        6.3386578230  HOAC      93              0.0000000000
     10247       550  HOAC      H3            -23.3363353022        2.0273282386        7.9880262341  HOAC      93              0.0000000000
     10248       550  HOAC      O1            -23.9152836912        5.0352157582        7.5097608030  HOAC      93              0.0000000000
     10249       550  HOAC      DO1           -23.9215476113        5.0302682211        7.4968979242  HOAC      93              0.0000000000
     10250       550  HOAC      O2            -22.6113013350        4.2099240049        9.1979661694  HOAC      93              0.0000000000
     10251       550  HOAC      DO2           -22.6327579576        4.1885454896        9.1592985322  HOAC      93              0.0000000000
     10252       550  HOAC      H             -22.6955868637        5.0776502230        9.6209415353  HOAC      93              0.0000000000
     10253       550  HOAC      LPO11         -23.8747929512        5.2078107898        7.7517762055  HOAC      93              0.0000000000
     10254       550  HOAC      LPO12         -23.9617493582        4.8701544756        7.2635988344  HOAC      93              0.0000000000
     10255       550  HOAC      LPO21         -22.8307845620        4.1127747787        9.4526996398  HOAC      93              0.0000000000
     10256       550  HOAC      LPO22         -22.2765916956        4.3068118145        9.1650692143  HOAC      93              0.0000000000
     10257       551  HOAC      C1             14.9081092803      -13.9682144513       -7.7476216664  HOAC      94              0.0000000000
     10258       551  HOAC      DC1            14.9143830224      -13.9620121628       -7.7517299686  HOAC      94              0.0000000000
     10259       551  HOAC      C2             13.6535607610      -13.2647507666       -7.4183540191  HOAC      94              0.0000000000
     10260       551  HOAC      DC2            13.7068820581      -13.2605042855       -7.4375727771  HOAC      94              0.0000000000
     10261       551  HOAC      H1             13.3911557457      -12.5306223743       -8.2098842544  HOAC      94              0.0000000000
     10262       551  HOAC      H2             13.7538615014      -12.7361157988       -6.4463427883  HOAC      94              0.0000000000
     10263       551  HOAC      H3             12.8261721496      -14.0010413496       -7.3310312661  HOAC      94              0.0000000000
     10264       551  HOAC      O1             15.9083287854      -14.0128204374       -7.0476551072  HOAC      94              0.0000000000
     10265       551  HOAC      DO1            15.9087760693      -14.0221383349       -7.0798932981  HOAC      94              0.0000000000
     10266       551  HOAC      O2             14.8678253678      -14.5189395917       -8.9961415509  HOAC      94              0.0000000000
     10267       551  HOAC      DO2            14.8765687902      -14.5048395135       -8.9984067885  HOAC      94              0.0000000000
     10268       551  HOAC      H              15.6890374520      -15.0203676787       -9.1107783091  HOAC      94              0.0000000000
     10269       551  HOAC      LPO11          16.0570373951      -14.1629772985       -7.2605838899  HOAC      94              0.0000000000
     10270       551  HOAC      LPO12          15.7681937497      -13.8630459252       -6.8287264265  HOAC      94              0.0000000000
     10271       551  HOAC      LPO21          14.7135839752      -14.8330423626       -8.9891385458  HOAC      94              0.0000000000
     10272       551  HOAC      LPO22          15.0044825321      -14.3008049354       -9.2332957015  HOAC      94              0.0000000000
     10273       552  HOAC      C1            -24.5335252396       17.0668384889      -13.6653988650  HOAC      95              0.0000000000
     10274       552  HOAC      DC1           -24.5348498652       17.0555703257      -13.6676526115  HOAC      95              0.0000000000
     10275       552  HOAC      C2            -25.9710469913       16.9776129440      -13.3261599128  HOAC      95              0.0000000000
     10276       552  HOAC      DC2           -25.9446681393       16.9695821251      -13.3185135793  HOAC      95              0.0000000000
     10277       552  HOAC      H1            -26.1283649179       17.1974407049      -12.2485478186  HOAC      95              0.0000000000
     10278       552  HOAC      H2            -26.3461420575       15.9570666490      -13.5544359570  HOAC      95              0.0000000000
     10279       552  HOAC      H3            -26.5591006986       17.6900037028      -13.9434226160  HOAC      95              0.0000000000
     10280       552  HOAC      O1            -23.8445212799       16.1380703815      -14.0646121824  HOAC      95              0.0000000000
     10281       552  HOAC      DO1           -23.8342013740       16.1562221474      -14.0605077645  HOAC      95              0.0000000000
     10282       552  HOAC      O2            -24.0430250804       18.3206985090      -13.4722195311  HOAC      95              0.0000000000
     10283       552  HOAC      DO2           -24.0505061585       18.3180438018      -13.4701732832  HOAC      95              0.0000000000
     10284       552  HOAC      H             -23.0982044318       18.2843899446      -13.6842493167  HOAC      95              0.0000000000
     10285       552  HOAC      LPO11         -23.6034920903       16.3161182192      -14.0788914409  HOAC      95              0.0000000000
     10286       552  HOAC      LPO12         -24.0796530808       15.9520729428      -14.0537499088  HOAC      95              0.0000000000
     10287       552  HOAC      LPO21         -24.0701939428       18.5117579440      -13.7642095056  HOAC      95              0.0000000000
     10288       552  HOAC      LPO22         -23.9361892830       18.3634236859      -13.1416735106  HOAC      95              0.0000000000
     10289       553  HOAC      C1             28.7032898788      -18.9011316022        4.1516716803  HOAC      96              0.0000000000
     10290       553  HOAC      DC1            28.7103512841      -18.8941208394        4.1443840122  HOAC      96              0.0000000000
     10291       553  HOAC      C2             29.6038201313      -20.0813715380        4.2970648512  HOAC      96              0.0000000000
     10292       553  HOAC      DC2            29.6042995172      -20.0402436808        4.2866897821  HOAC      96              0.0000000000
     10293       553  HOAC      H1             29.9594373500      -20.1466660087        5.3475856870  HOAC      96              0.0000000000
     10294       553  HOAC      H2             30.4929577974      -20.0020166818        3.6356587600  HOAC      96              0.0000000000
     10295       553  HOAC      H3             29.0595032417      -21.0154217988        4.0409589450  HOAC      96              0.0000000000
     10296       553  HOAC      O1             28.9176354132      -17.9251350027        3.4415442722  HOAC      96              0.0000000000
     10297       553  HOAC      DO1            28.9006324137      -17.9227302257        3.4550913646  HOAC      96              0.0000000000
     10298       553  HOAC      O2             27.6019940754      -18.9857236357        4.9465047553  HOAC      96              0.0000000000
     10299       553  HOAC      DO2            27.6051847086      -18.9874911839        4.9416797656  HOAC      96              0.0000000000
     10300       553  HOAC      H              27.0980077138      -18.1645354161        4.8435064289  HOAC      96              0.0000000000
     10301       553  HOAC      LPO11          28.6651443904      -17.7939417270        3.5366053464  HOAC      96              0.0000000000
     10302       553  HOAC      LPO12          29.1719573639      -18.0479913686        3.3404173283  HOAC      96              0.0000000000
     10303       553  HOAC      LPO21          27.3348598551      -19.1325470498        4.7745100070  HOAC      96              0.0000000000
     10304       553  HOAC      LPO22          27.6702970045      -18.8648114987        5.2677756146  HOAC      96              0.0000000000
     10305       554  HOAC      C1              0.9025516924      -20.4675782814      -10.6946035229  HOAC      97              0.0000000000
     10306       554  HOAC      DC1             0.8966683231      -20.4771170786      -10.6985264947  HOAC      97              0.0000000000
     10307       554  HOAC      C2              1.6078846691      -21.6523913579      -11.2597644063  HOAC      97              0.0000000000
     10308       554  HOAC      DC2             1.5871735457      -21.6500027573      -11.2405012272  HOAC      97              0.0000000000
     10309       554  HOAC      H1              2.6922080439      -21.4281570558      -11.3507742898  HOAC      97              0.0000000000
     10310       554  HOAC      H2              1.2096636348      -21.9062328664      -12.2654012674  HOAC      97              0.0000000000
     10311       554  HOAC      H3              1.4834210650      -22.5247289628      -10.5831131557  HOAC      97              0.0000000000
     10312       554  HOAC      O1             -0.0152603295      -19.8521364555      -11.2194789074  HOAC      97              0.0000000000
     10313       554  HOAC      DO1            -0.0072073175      -19.8522879531      -11.1943712563  HOAC      97              0.0000000000
     10314       554  HOAC      O2              1.3560940195      -20.1880174665       -9.4420030966  HOAC      97              0.0000000000
     10315       554  HOAC      DO2             1.3560065476      -20.2013259034       -9.4473780941  HOAC      97              0.0000000000
     10316       554  HOAC      H               0.8668452955      -19.4111374352       -9.1320771329  HOAC      97              0.0000000000
     10317       554  HOAC      LPO11          -0.0452434163      -19.6790429441      -10.9762924546  HOAC      97              0.0000000000
     10318       554  HOAC      LPO12           0.0068667589      -20.0199621017      -11.4671580233  HOAC      97              0.0000000000
     10319       554  HOAC      LPO21           1.1716460382      -20.3619649570       -9.2007123742  HOAC      97              0.0000000000
     10320       554  HOAC      LPO22           1.6309240115      -19.9716345481       -9.4541236627  HOAC      97              0.0000000000
     10321       555  HOAC      C1            -22.1277662522      -23.4215144383       25.5487410178  HOAC      98              0.0000000000
     10322       555  HOAC      DC1           -22.1304646472      -23.4224724501       25.5505063704  HOAC      98              0.0000000000
     10323       555  HOAC      C2            -23.0170535714      -24.5620101206       25.9029535948  HOAC      98              0.0000000000
     10324       555  HOAC      DC2           -22.9938384286      -24.5419498509       25.9052393189  HOAC      98              0.0000000000
     10325       555  HOAC      H1            -22.4186170178      -25.4920540445       26.0088450105  HOAC      98              0.0000000000
     10326       555  HOAC      H2            -23.7814225779      -24.7211154797       25.1125445181  HOAC      98              0.0000000000
     10327       555  HOAC      H3            -23.5324852360      -24.3523368200       26.8645607423  HOAC      98              0.0000000000
     10328       555  HOAC      O1            -22.2299955947      -22.6887465639       24.5755484949  HOAC      98              0.0000000000
     10329       555  HOAC      DO1           -22.2106403903      -22.6824579390       24.6002088610  HOAC      98              0.0000000000
     10330       555  HOAC      O2            -21.1583313026      -23.2532671812       26.4948036709  HOAC      98              0.0000000000
     10331       555  HOAC      DO2           -21.1653211055      -23.2659113779       26.5001416635  HOAC      98              0.0000000000
     10332       555  HOAC      H             -20.6025617674      -22.5170808373       26.1979688839  HOAC      98              0.0000000000
     10333       555  HOAC      LPO11         -21.9938255120      -22.5272412030       24.6657688387  HOAC      98              0.0000000000
     10334       555  HOAC      LPO12         -22.4670413337      -22.8439753233       24.4769921666  HOAC      98              0.0000000000
     10335       555  HOAC      LPO21         -21.2645471672      -23.0321648373       26.7444673319  HOAC      98              0.0000000000
     10336       555  HOAC      LPO22         -20.8791537069      -23.4522214913       26.4242554422  HOAC      98              0.0000000000
     10337       556  HOAC      C1             19.8881934185       23.8909981918      -35.5080633329  HOAC      99              0.0000000000
     10338       556  HOAC      DC1            19.8703871753       23.8899382377      -35.4940444538  HOAC      99              0.0000000000
     10339       556  HOAC      C2             21.2327353962       23.7237124531      -34.8858802356  HOAC      99              0.0000000000
     10340       556  HOAC      DC2            21.1942547256       23.7356991008      -34.8966833355  HOAC      99              0.0000000000
     10341       556  HOAC      H1             21.9087652000       23.1779558437      -35.5783067143  HOAC      99              0.0000000000
     10342       556  HOAC      H2             21.1675325453       23.1538845903      -33.9343731180  HOAC      99              0.0000000000
     10343       556  HOAC      H3             21.6763399729       24.7210939690      -34.6790805910  HOAC      99              0.0000000000
     10344       556  HOAC      O1             18.8071960831       23.5577328812      -35.0281818572  HOAC      99              0.0000000000
     10345       556  HOAC      DO1            18.7907618152       23.5701219202      -35.0440885432  HOAC      99              0.0000000000
     10346       556  HOAC      O2             19.9763407799       24.5728835343      -36.6822848924  HOAC      99              0.0000000000
     10347       556  HOAC      DO2            19.9769472793       24.5756323926      -36.6648653212  HOAC      99              0.0000000000
     10348       556  HOAC      H              19.0935601467       24.5971875047      -37.0811190316  HOAC      99              0.0000000000
     10349       556  HOAC      LPO11          18.6606159333       23.6827258145      -35.2581623484  HOAC      99              0.0000000000
     10350       556  HOAC      LPO12          18.9445641877       23.4298999270      -34.7941119112  HOAC      99              0.0000000000
     10351       556  HOAC      LPO21          19.9265600976       24.9156100709      -36.6316844498  HOAC      99              0.0000000000
     10352       556  HOAC      LPO22          20.0534695940       24.3568515550      -36.9466356630  HOAC      99              0.0000000000
     10353       557  HOAC      C1             37.1817400329       26.3076610187       11.3583534968  HOAC      100             0.0000000000
     10354       557  HOAC      DC1            37.1750528069       26.3099968297       11.3497402479  HOAC      100             0.0000000000
     10355       557  HOAC      C2             36.7802799135       26.1839666559        9.9335864347  HOAC      100             0.0000000000
     10356       557  HOAC      DC2            36.7734184384       26.1919433159        9.9506481914  HOAC      100             0.0000000000
     10357       557  HOAC      H1             35.7583169102       26.5975501706        9.7962499983  HOAC      100             0.0000000000
     10358       557  HOAC      H2             36.7868173529       25.1161894870        9.6267800145  HOAC      100             0.0000000000
     10359       557  HOAC      H3             37.4979707571       26.7444914426        9.2971488358  HOAC      100             0.0000000000
     10360       557  HOAC      O1             37.4703771367       25.3836303156       12.0953426238  HOAC      100             0.0000000000
     10361       557  HOAC      DO1            37.4613292223       25.4209275083       12.0983005888  HOAC      100             0.0000000000
     10362       557  HOAC      O2             37.1488582197       27.5994840874       11.7950673507  HOAC      100             0.0000000000
     10363       557  HOAC      DO2            37.1388122902       27.5998415591       11.7865579921  HOAC      100             0.0000000000
     10364       557  HOAC      H              37.4586927554       27.5687588658       12.7126835674  HOAC      100             0.0000000000
     10365       557  HOAC      LPO11          37.5076828709       25.5721350022       12.3257211500  HOAC      100             0.0000000000
     10366       557  HOAC      LPO12          37.4355555894       25.1871728571       11.8713070757  HOAC      100             0.0000000000
     10367       557  HOAC      LPO21          37.4514651302       27.7618606493       11.7275180365  HOAC      100             0.0000000000
     10368       557  HOAC      LPO22          36.8363708310       27.6769543823       11.9323625993  HOAC      100             0.0000000000
     10369       558  HOAC      C1            -26.1038758438       -2.8851095666        0.8283579462  HOAC      101             0.0000000000
     10370       558  HOAC      DC1           -26.1191234723       -2.8837989707        0.8213058280  HOAC      101             0.0000000000
     10371       558  HOAC      C2            -27.1550110312       -3.7819819089        0.2776539680  HOAC      101             0.0000000000
     10372       558  HOAC      DC2           -27.1516450035       -3.7741451950        0.2853705342  HOAC      101             0.0000000000
     10373       558  HOAC      H1            -26.6882840957       -4.6891690787       -0.1622305714  HOAC      101             0.0000000000
     10374       558  HOAC      H2            -27.7239907113       -3.2458270733       -0.5117262423  HOAC      101             0.0000000000
     10375       558  HOAC      H3            -27.8447165712       -4.0904872135        1.0921794405  HOAC      101             0.0000000000
     10376       558  HOAC      O1            -25.9239329354       -1.7318295676        0.4705893039  HOAC      101             0.0000000000
     10377       558  HOAC      DO1           -25.9235790780       -1.7386825895        0.4904387136  HOAC      101             0.0000000000
     10378       558  HOAC      O2            -25.4260465622       -3.4827262469        1.8405527611  HOAC      101             0.0000000000
     10379       558  HOAC      DO2           -25.4537191736       -3.4910269681        1.8352674200  HOAC      101             0.0000000000
     10380       558  HOAC      H             -24.6914359606       -2.9040064998        2.0943079943  HOAC      101             0.0000000000
     10381       558  HOAC      LPO11         -25.7121821918       -1.6944296462        0.6797850698  HOAC      101             0.0000000000
     10382       558  HOAC      LPO12         -26.1341402555       -1.7593374650        0.2583248505  HOAC      101             0.0000000000
     10383       558  HOAC      LPO21         -25.5602173705       -3.3925937417        2.1509949067  HOAC      101             0.0000000000
     10384       558  HOAC      LPO22         -25.1743683035       -3.6916589802        1.7160330156  HOAC      101             0.0000000000
     10385       559  HOAC      C1             16.1765232597      -30.2979760912      -13.7864857126  HOAC      102             0.0000000000
     10386       559  HOAC      DC1            16.1588938064      -30.2792028672      -13.7982339226  HOAC      102             0.0000000000
     10387       559  HOAC      C2             17.5890560927      -29.9122642872      -14.0002488540  HOAC      102             0.0000000000
     10388       559  HOAC      DC2            17.5384229267      -29.9041736563      -14.0034329246  HOAC      102             0.0000000000
     10389       559  HOAC      H1             18.0750881512      -29.6421046543      -13.0384237075  HOAC      102             0.0000000000
     10390       559  HOAC      H2             17.6701091501      -29.0544521440      -14.7016116200  HOAC      102             0.0000000000
     10391       559  HOAC      H3             18.1512113198      -30.7751767745      -14.4170036259  HOAC      102             0.0000000000
     10392       559  HOAC      O1             15.2181205352      -29.7544330860      -14.3307280649  HOAC      102             0.0000000000
     10393       559  HOAC      DO1            15.2137405636      -29.7476212619      -14.3264644306  HOAC      102             0.0000000000
     10394       559  HOAC      O2             16.0632976606      -31.3133385910      -12.8912831886  HOAC      102             0.0000000000
     10395       559  HOAC      DO2            16.0672347748      -31.2991878437      -12.9026048014  HOAC      102             0.0000000000
     10396       559  HOAC      H              15.1315245869      -31.5459302616      -12.7622054842  HOAC      102             0.0000000000
     10397       559  HOAC      LPO11          15.0268362331      -29.9331003744      -14.1841391300  HOAC      102             0.0000000000
     10398       559  HOAC      LPO12          15.4012382418      -29.5711342417      -14.4819545149  HOAC      102             0.0000000000
     10399       559  HOAC      LPO21          16.0790014654      -31.6238468795      -13.0520251971  HOAC      102             0.0000000000
     10400       559  HOAC      LPO22          16.0381297378      -31.1897286939      -12.5648062844  HOAC      102             0.0000000000
     10401       560  HOAC      C1            -17.3814555642      -15.5794307778       -4.7235840941  HOAC      103             0.0000000000
     10402       560  HOAC      DC1           -17.3827973466      -15.5820211851       -4.7153829881  HOAC      103             0.0000000000
     10403       560  HOAC      C2            -17.3600988401      -15.6484697679       -3.2383277102  HOAC      103             0.0000000000
     10404       560  HOAC      DC2           -17.3741523227      -15.6613556009       -3.2552648042  HOAC      103             0.0000000000
     10405       560  HOAC      H1            -17.6145143255      -14.6513292502       -2.8196338492  HOAC      103             0.0000000000
     10406       560  HOAC      H2            -16.3549118307      -15.9476495842       -2.8717059518  HOAC      103             0.0000000000
     10407       560  HOAC      H3            -18.0934757999      -16.4001593433       -2.8757783777  HOAC      103             0.0000000000
     10408       560  HOAC      O1            -16.4623336715      -15.8838886747       -5.4668703658  HOAC      103             0.0000000000
     10409       560  HOAC      DO1           -16.4842424957      -15.8753932306       -5.4640675334  HOAC      103             0.0000000000
     10410       560  HOAC      O2            -18.5900105106      -15.1416643409       -5.1778234316  HOAC      103             0.0000000000
     10411       560  HOAC      DO2           -18.5926477213      -15.1377158936       -5.1585475134  HOAC      103             0.0000000000
     10412       560  HOAC      H             -18.5512627625      -15.1808369347       -6.1452556617  HOAC      103             0.0000000000
     10413       560  HOAC      LPO11         -16.6287630224      -15.8189378749       -5.7078738196  HOAC      103             0.0000000000
     10414       560  HOAC      LPO12         -16.2880194743      -15.9514513193       -5.2322433219  HOAC      103             0.0000000000
     10415       560  HOAC      LPO21         -18.8163432344      -15.4071224106       -5.2062049638  HOAC      103             0.0000000000
     10416       560  HOAC      LPO22         -18.5885254787      -14.7944524562       -5.2218881773  HOAC      103             0.0000000000
     10417       561  HOAC      C1            -36.2330502036        1.5529126873        2.6645545423  HOAC      104             0.0000000000
     10418       561  HOAC      DC1           -36.2248121159        1.5465745965        2.6609207313  HOAC      104             0.0000000000
     10419       561  HOAC      C2            -35.0246629481        0.7289839685        2.4905722403  HOAC      104             0.0000000000
     10420       561  HOAC      DC2           -35.0258481740        0.7373342169        2.5038998329  HOAC      104             0.0000000000
     10421       561  HOAC      H1            -34.1266275025        1.3250934427        2.7598431697  HOAC      104             0.0000000000
     10422       561  HOAC      H2            -34.9475883244        0.4488307230        1.4182408256  HOAC      104             0.0000000000
     10423       561  HOAC      H3            -35.0976699545       -0.1966950024        3.1005799619  HOAC      104             0.0000000000
     10424       561  HOAC      O1            -36.8636774999        1.9720587097        1.7217522211  HOAC      104             0.0000000000
     10425       561  HOAC      DO1           -36.8633363906        1.9698221106        1.7455245276  HOAC      104             0.0000000000
     10426       561  HOAC      O2            -36.5785672827        1.7937383608        3.9620169754  HOAC      104             0.0000000000
     10427       561  HOAC      DO2           -36.5623077115        1.7817025646        3.9576548378  HOAC      104             0.0000000000
     10428       561  HOAC      H             -37.3744903468        2.3462389857        3.9475071372  HOAC      104             0.0000000000
     10429       561  HOAC      LPO11         -37.0598150079        2.1053604695        1.9054931223  HOAC      104             0.0000000000
     10430       561  HOAC      LPO12         -36.6730009451        1.8423865690        1.5298470690  HOAC      104             0.0000000000
     10431       561  HOAC      LPO21         -36.7921598991        1.5441298987        4.0827390109  HOAC      104             0.0000000000
     10432       561  HOAC      LPO22         -36.4193072538        2.0812445120        4.0823351213  HOAC      104             0.0000000000
     10433       562  HOAC      C1             11.8307493444       15.3589221710      -20.1944594345  HOAC      105             0.0000000000
     10434       562  HOAC      DC1            11.8341521239       15.3591922399      -20.1827194866  HOAC      105             0.0000000000
     10435       562  HOAC      C2             11.8082050462       16.7711601286      -19.7325677128  HOAC      105             0.0000000000
     10436       562  HOAC      DC2            11.8093562484       16.7580817748      -19.7279955378  HOAC      105             0.0000000000
     10437       562  HOAC      H1             10.9194604913       17.2807913547      -20.1623701434  HOAC      105             0.0000000000
     10438       562  HOAC      H2             12.7166561399       17.3086223705      -20.0792259755  HOAC      105             0.0000000000
     10439       562  HOAC      H3             11.7486322507       16.8040795249      -18.6236545526  HOAC      105             0.0000000000
     10440       562  HOAC      O1             12.7524084132       14.7874747956      -20.7618818396  HOAC      105             0.0000000000
     10441       562  HOAC      DO1            12.7183411609       14.7719126479      -20.7556579383  HOAC      105             0.0000000000
     10442       562  HOAC      O2             10.6509309450       14.7325881886      -19.8988863832  HOAC      105             0.0000000000
     10443       562  HOAC      DO2            10.6450884031       14.7398235463      -19.8945512460  HOAC      105             0.0000000000
     10444       562  HOAC      H              10.7537340137       13.8170631825      -20.1992303398  HOAC      105             0.0000000000
     10445       562  HOAC      LPO11          12.5933246864       14.5335093000      -20.7758064553  HOAC      105             0.0000000000
     10446       562  HOAC      LPO12          12.9193775536       15.0365511742      -20.7528119045  HOAC      105             0.0000000000
     10447       562  HOAC      LPO21          10.6588517388       14.5972123697      -19.5762245654  HOAC      105             0.0000000000
     10448       562  HOAC      LPO22          10.4235920364       14.7633616657      -20.1632157492  HOAC      105             0.0000000000
     10449       563  HOAC      C1              3.4933600195       24.7569827935      -18.3733346019  HOAC      106             0.0000000000
     10450       563  HOAC      DC1             3.4952326058       24.7510093082      -18.4049915940  HOAC      106             0.0000000000
     10451       563  HOAC      C2              4.1074921225       23.4359981670      -18.7149620484  HOAC      106             0.0000000000
     10452       563  HOAC      DC2             4.1169130214       23.4621389880      -18.7366943848  HOAC      106             0.0000000000
     10453       563  HOAC      H1              4.9246182846       23.5609589351      -19.4572629589  HOAC      106             0.0000000000
     10454       563  HOAC      H2              3.3474356924       22.7371750442      -19.1251832902  HOAC      106             0.0000000000
     10455       563  HOAC      H3              4.5369654363       22.9850501419      -17.7948970770  HOAC      106             0.0000000000
     10456       563  HOAC      O1              2.3218878046       25.0599086766      -18.5407854916  HOAC      106             0.0000000000
     10457       563  HOAC      DO1             2.3363456569       25.0672033375      -18.5525009371  HOAC      106             0.0000000000
     10458       563  HOAC      O2              4.4727085187       25.6748345801      -18.1415199338  HOAC      106             0.0000000000
     10459       563  HOAC      DO2             4.4874020813       25.6650954069      -18.2125095077  HOAC      106             0.0000000000
     10460       563  HOAC      H               4.0905753933       26.2886406054      -17.4964017759  HOAC      106             0.0000000000
     10461       563  HOAC      LPO11           2.3868888391       25.3508687018      -18.5073620079  HOAC      106             0.0000000000
     10462       563  HOAC      LPO12           2.2468444938       24.7715454398      -18.5756444239  HOAC      106             0.0000000000
     10463       563  HOAC      LPO21           4.6811793534       25.5716377839      -17.8800044804  HOAC      106             0.0000000000
     10464       563  HOAC      LPO22           4.4506191291       25.9408651351      -18.3678820391  HOAC      106             0.0000000000
     10465       564  HOAC      C1             14.1609870472      -10.4167303905       23.3277432336  HOAC      107             0.0000000000
     10466       564  HOAC      DC1            14.1668509177      -10.4116560912       23.3222065630  HOAC      107             0.0000000000
     10467       564  HOAC      C2             13.3131051003       -9.3328305549       22.7585670644  HOAC      107             0.0000000000
     10468       564  HOAC      DC2            13.3218420910       -9.3585308056       22.7571178769  HOAC      107             0.0000000000
     10469       564  HOAC      H1             12.8065494103       -9.6977132423       21.8395551178  HOAC      107             0.0000000000
     10470       564  HOAC      H2             13.9321316867       -8.4460230932       22.5042058807  HOAC      107             0.0000000000
     10471       564  HOAC      H3             12.5470162527       -9.0267130344       23.5026913426  HOAC      107             0.0000000000
     10472       564  HOAC      O1             15.3757257161      -10.3885892129       23.4797496712  HOAC      107             0.0000000000
     10473       564  HOAC      DO1            15.3642095861      -10.4133816040       23.4843396123  HOAC      107             0.0000000000
     10474       564  HOAC      O2             13.4027174454      -11.5094074598       23.6202265245  HOAC      107             0.0000000000
     10475       564  HOAC      DO2            13.4025295320      -11.4972479964       23.6086628928  HOAC      107             0.0000000000
     10476       564  HOAC      H              13.9760985442      -12.1784122887       24.0234977166  HOAC      107             0.0000000000
     10477       564  HOAC      LPO11          15.3748309772      -10.6708646633       23.5813359377  HOAC      107             0.0000000000
     10478       564  HOAC      LPO12          15.3870081201      -10.1060731172       23.3794632662  HOAC      107             0.0000000000
     10479       564  HOAC      LPO21          13.2646652434      -11.4834052928       23.9407970735  HOAC      107             0.0000000000
     10480       564  HOAC      LPO22          13.3925089815      -11.7305068492       23.3490976857  HOAC      107             0.0000000000
     10481       565  HOAC      C1            -26.9939490937       -5.6637275829      -23.7459790113  HOAC      108             0.0000000000
     10482       565  HOAC      DC1           -26.9946753112       -5.6785739169      -23.7399337626  HOAC      108             0.0000000000
     10483       565  HOAC      C2            -28.0902208202       -6.0257474050      -22.8051166384  HOAC      108             0.0000000000
     10484       565  HOAC      DC2           -28.0905957670       -6.0380024588      -22.8175274454  HOAC      108             0.0000000000
     10485       565  HOAC      H1            -28.4568006675       -5.1005427464      -22.3112173007  HOAC      108             0.0000000000
     10486       565  HOAC      H2            -27.7140000957       -6.7214511828      -22.0248761499  HOAC      108             0.0000000000
     10487       565  HOAC      H3            -28.9182479405       -6.5076782887      -23.3676419384  HOAC      108             0.0000000000
     10488       565  HOAC      O1            -25.8344241536       -6.0518041968      -23.6740375697  HOAC      108             0.0000000000
     10489       565  HOAC      DO1           -25.8407719867       -6.0390063806      -23.6889365396  HOAC      108             0.0000000000
     10490       565  HOAC      O2            -27.4652140814       -4.8961461595      -24.7674218437  HOAC      108             0.0000000000
     10491       565  HOAC      DO2           -27.4773464934       -4.9174920744      -24.7681512151  HOAC      108             0.0000000000
     10492       565  HOAC      H             -26.6949976250       -4.5665877056      -25.2543703377  HOAC      108             0.0000000000
     10493       565  HOAC      LPO11         -25.7666670771       -5.9136173378      -23.9315513957  HOAC      108             0.0000000000
     10494       565  HOAC      LPO12         -25.8922683257       -6.1933087648      -23.4159087085  HOAC      108             0.0000000000
     10495       565  HOAC      LPO21         -27.5233994332       -5.0901718375      -25.0528487190  HOAC      108             0.0000000000
     10496       565  HOAC      LPO22         -27.5041454673       -4.5634567616      -24.6659225248  HOAC      108             0.0000000000
     10497       566  HOAC      C1             36.9947232062      -22.9060683892       36.1973608360  HOAC      109             0.0000000000
     10498       566  HOAC      DC1            36.9962016178      -22.9065534321       36.2087519454  HOAC      109             0.0000000000
     10499       566  HOAC      C2             36.8811983662      -24.3828704567       36.3726801625  HOAC      109             0.0000000000
     10500       566  HOAC      DC2            36.8769090224      -24.3746136934       36.3697105579  HOAC      109             0.0000000000
     10501       566  HOAC      H1             35.8411592191      -24.7059700272       36.1530298950  HOAC      109             0.0000000000
     10502       566  HOAC      H2             37.1262738357      -24.6632603962       37.4194086361  HOAC      109             0.0000000000
     10503       566  HOAC      H3             37.5781347842      -24.9034552433       35.6815997694  HOAC      109             0.0000000000
     10504       566  HOAC      O1             37.0289838915      -22.0920586052       37.1073111730  HOAC      109             0.0000000000
     10505       566  HOAC      DO1            37.0318647910      -22.0795155510       37.0811902648  HOAC      109             0.0000000000
     10506       566  HOAC      O2             37.0360523919      -22.5095260370       34.8920841907  HOAC      109             0.0000000000
     10507       566  HOAC      DO2            37.0368316750      -22.5113532453       34.8965255243  HOAC      109             0.0000000000
     10508       566  HOAC      H              37.0939472296      -21.5426428507       34.9193988729  HOAC      109             0.0000000000
     10509       566  HOAC      LPO11          37.0448455146      -21.8656130457       36.9111713822  HOAC      109             0.0000000000
     10510       566  HOAC      LPO12          37.0134159982      -22.3115253514       37.3112523115  HOAC      109             0.0000000000
     10511       566  HOAC      LPO21          37.3658281412      -22.4983594820       34.7753654551  HOAC      109             0.0000000000
     10512       566  HOAC      LPO22          36.7132263430      -22.4590368581       34.7666482111  HOAC      109             0.0000000000
     10513       567  HOAC      C1            -10.1204806631       -8.8216253221        5.4247535515  HOAC      110             0.0000000000
     10514       567  HOAC      DC1           -10.1335508921       -8.8260949859        5.4190705480  HOAC      110             0.0000000000
     10515       567  HOAC      C2            -10.5594008970       -7.6951695118        4.5730434602  HOAC      110             0.0000000000
     10516       567  HOAC      DC2           -10.5705939916       -7.7408533258        4.5746688615  HOAC      110             0.0000000000
     10517       567  HOAC      H1             -9.7050864952       -7.3212355978        3.9691880700  HOAC      110             0.0000000000
     10518       567  HOAC      H2            -10.9206518567       -6.8717062978        5.2255211068  HOAC      110             0.0000000000
     10519       567  HOAC      H3            -11.3851839612       -8.0050915952        3.8975054261  HOAC      110             0.0000000000
     10520       567  HOAC      O1            -10.1264309185       -8.8546882814        6.6434727309  HOAC      110             0.0000000000
     10521       567  HOAC      DO1           -10.1229763752       -8.8996960765        6.6188725587  HOAC      110             0.0000000000
     10522       567  HOAC      O2             -9.7962101030       -9.9253188384        4.6891894354  HOAC      110             0.0000000000
     10523       567  HOAC      DO2            -9.7967160119       -9.9286475851        4.6768540080  HOAC      110             0.0000000000
     10524       567  HOAC      H              -9.5955546832      -10.5967243398        5.3584525041  HOAC      110             0.0000000000
     10525       567  HOAC      LPO11         -10.0440774754       -9.1431551449        6.6412866278  HOAC      110             0.0000000000
     10526       567  HOAC      LPO12         -10.2088354679       -8.5665053926        6.6561263017  HOAC      110             0.0000000000
     10527       567  HOAC      LPO21         -10.0809335058      -10.1160407316        4.6180716222  HOAC      110             0.0000000000
     10528       567  HOAC      LPO22          -9.4539526349       -9.9305610178        4.6161665274  HOAC      110             0.0000000000
     10529       568  HOAC      C1            -16.0678587541      -10.8729262523      -36.4805041302  HOAC      111             0.0000000000
     10530       568  HOAC      DC1           -16.0597860475      -10.8791002797      -36.4710084274  HOAC      111             0.0000000000
     10531       568  HOAC      C2            -15.1044400045      -12.0041318249      -36.4865896965  HOAC      111             0.0000000000
     10532       568  HOAC      DC2           -15.1066486415      -11.9997095323      -36.4765620474  HOAC      111             0.0000000000
     10533       568  HOAC      H1            -15.4805697629      -12.7993779944      -35.8080390833  HOAC      111             0.0000000000
     10534       568  HOAC      H2            -14.1095271098      -11.6563212065      -36.1351681437  HOAC      111             0.0000000000
     10535       568  HOAC      H3            -15.0069460905      -12.3990950706      -37.5204271944  HOAC      111             0.0000000000
     10536       568  HOAC      O1            -15.8201463351       -9.7603862416      -36.0403333188  HOAC      111             0.0000000000
     10537       568  HOAC      DO1           -15.8388552045       -9.7706162180      -36.0451947682  HOAC      111             0.0000000000
     10538       568  HOAC      O2            -17.3011363610      -11.2403710708      -36.9297865794  HOAC      111             0.0000000000
     10539       568  HOAC      DO2           -17.3005168016      -11.2557416401      -36.9116497595  HOAC      111             0.0000000000
     10540       568  HOAC      H             -17.8094243851      -10.4239564148      -37.0484094865  HOAC      111             0.0000000000
     10541       568  HOAC      LPO11         -16.1036498104       -9.6734906138      -36.0858847117  HOAC      111             0.0000000000
     10542       568  HOAC      LPO12         -15.5345198832       -9.8377470364      -35.9910095176  HOAC      111             0.0000000000
     10543       568  HOAC      LPO21         -17.3064659464      -11.2583011600      -37.2792863755  HOAC      111             0.0000000000
     10544       568  HOAC      LPO22         -17.5186047628      -11.3007249345      -36.6622704016  HOAC      111             0.0000000000
     10545       569  HOAC      C1             12.0617091913        7.3750564293      -21.7647264033  HOAC      112             0.0000000000
     10546       569  HOAC      DC1            12.0419742222        7.3882622944      -21.7661979763  HOAC      112             0.0000000000
     10547       569  HOAC      C2             11.4358739754        8.1616823579      -22.8640423290  HOAC      112             0.0000000000
     10548       569  HOAC      DC2            11.4077846159        8.1576030245      -22.8389684059  HOAC      112             0.0000000000
     10549       569  HOAC      H1             10.3291662634        8.1405195128      -22.7687996151  HOAC      112             0.0000000000
     10550       569  HOAC      H2             11.7396622719        7.7380269264      -23.8451385253  HOAC      112             0.0000000000
     10551       569  HOAC      H3             11.7976232200        9.2112572473      -22.8210186453  HOAC      112             0.0000000000
     10552       569  HOAC      O1             12.7603192809        6.3881241038      -21.8805258838  HOAC      112             0.0000000000
     10553       569  HOAC      DO1            12.7459664932        6.4195692541      -21.8367445315  HOAC      112             0.0000000000
     10554       569  HOAC      O2             11.7327837279        7.8703845368      -20.5341033351  HOAC      112             0.0000000000
     10555       569  HOAC      DO2            11.7026349883        7.8778845168      -20.5342320233  HOAC      112             0.0000000000
     10556       569  HOAC      H              12.2688625516        7.3296883661      -19.9347468921  HOAC      112             0.0000000000
     10557       569  HOAC      LPO11          12.7835602850        6.3631598503      -21.5824711208  HOAC      112             0.0000000000
     10558       569  HOAC      LPO12          12.7431007056        6.4045804218      -22.1795789063  HOAC      112             0.0000000000
     10559       569  HOAC      LPO21          11.9427768829        8.1362765421      -20.4463290999  HOAC      112             0.0000000000
     10560       569  HOAC      LPO22          11.4555937331        7.7024642519      -20.4019349399  HOAC      112             0.0000000000
     10561       570  HOAC      C1            -10.3002164766       35.0537756824       24.9893737783  HOAC      113             0.0000000000
     10562       570  HOAC      DC1           -10.2916563996       35.0581218710       24.9897127513  HOAC      113             0.0000000000
     10563       570  HOAC      C2            -10.2693012757       36.5057576344       25.2819261259  HOAC      113             0.0000000000
     10564       570  HOAC      DC2           -10.2734061837       36.4844985430       25.2810643492  HOAC      113             0.0000000000
     10565       570  HOAC      H1            -10.8067428843       37.1100207778       24.5201232831  HOAC      113             0.0000000000
     10566       570  HOAC      H2             -9.2285378666       36.8845444101       25.3694081513  HOAC      113             0.0000000000
     10567       570  HOAC      H3            -10.7890150428       36.6017679353       26.2591674593  HOAC      113             0.0000000000
     10568       570  HOAC      O1             -9.3317640443       34.3597358899       24.7190501957  HOAC      113             0.0000000000
     10569       570  HOAC      DO1            -9.3534826874       34.3499867322       24.7248465100  HOAC      113             0.0000000000
     10570       570  HOAC      O2            -11.5493632924       34.5485844521       25.1787287097  HOAC      113             0.0000000000
     10571       570  HOAC      DO2           -11.5412230941       34.5645306594       25.1916407616  HOAC      113             0.0000000000
     10572       570  HOAC      H             -11.5888922744       33.6505914059       24.8167798894  HOAC      113             0.0000000000
     10573       570  HOAC      LPO11          -9.5011071445       34.1121578799       24.7243457935  HOAC      113             0.0000000000
     10574       570  HOAC      LPO12          -9.1541204583       34.6013653709       24.7114376879  HOAC      113             0.0000000000
     10575       570  HOAC      LPO21         -11.5728925580       34.3863853250       25.4879823545  HOAC      113             0.0000000000
     10576       570  HOAC      LPO22         -11.7582461240       34.6277922599       24.9092958129  HOAC      113             0.0000000000
     10577       571  HOAC      C1             32.0726224463      -12.7476600820      -14.2594486053  HOAC      114             0.0000000000
     10578       571  HOAC      DC1            32.0602570311      -12.7628830889      -14.2353553035  HOAC      114             0.0000000000
     10579       571  HOAC      C2             31.6467480245      -11.5538967589      -13.4675328750  HOAC      114             0.0000000000
     10580       571  HOAC      DC2            31.6556615279      -11.5795312884      -13.4524203717  HOAC      114             0.0000000000
     10581       571  HOAC      H1             32.5195918035      -11.1358781154      -12.9218909111  HOAC      114             0.0000000000
     10582       571  HOAC      H2             30.8507575867      -11.8331541565      -12.7445283596  HOAC      114             0.0000000000
     10583       571  HOAC      H3             31.2621480099      -10.7662250274      -14.1501580080  HOAC      114             0.0000000000
     10584       571  HOAC      O1             31.7075506306      -13.8971967181      -14.0361618604  HOAC      114             0.0000000000
     10585       571  HOAC      DO1            31.7140852171      -13.9026994369      -14.0280612236  HOAC      114             0.0000000000
     10586       571  HOAC      O2             33.0066736584      -12.4195295767      -15.1731341584  HOAC      114             0.0000000000
     10587       571  HOAC      DO2            32.9855908252      -12.4255875698      -15.1445180034  HOAC      114             0.0000000000
     10588       571  HOAC      H              33.3030066680      -13.1959669606      -15.6714239700  HOAC      114             0.0000000000
     10589       571  HOAC      LPO11          31.8965766286      -14.0031167420      -14.2436470902  HOAC      114             0.0000000000
     10590       571  HOAC      LPO12          31.5154080485      -13.8010901812      -13.8267704524  HOAC      114             0.0000000000
     10591       571  HOAC      LPO21          32.8580516811      -12.3312811218      -15.4774756082  HOAC      114             0.0000000000
     10592       571  HOAC      LPO22          33.3277898562      -12.4360386680      -15.0348885892  HOAC      114             0.0000000000
     10593       572  HOAC      C1            -31.1675193782       19.7282309538       -8.4211706596  HOAC      115             0.0000000000
     10594       572  HOAC      DC1           -31.1638163023       19.7171975842       -8.4169419924  HOAC      115             0.0000000000
     10595       572  HOAC      C2            -29.7677796191       19.2848197008       -8.1763497803  HOAC      115             0.0000000000
     10596       572  HOAC      DC2           -29.7819547962       19.2752387495       -8.1725116920  HOAC      115             0.0000000000
     10597       572  HOAC      H1            -29.1894322426       19.3414993364       -9.1232514283  HOAC      115             0.0000000000
     10598       572  HOAC      H2            -29.7579157739       18.2402253948       -7.7981349703  HOAC      115             0.0000000000
     10599       572  HOAC      H3            -29.3014664180       19.9471876456       -7.4159934791  HOAC      115             0.0000000000
     10600       572  HOAC      O1            -32.1483518938       19.0194847627       -8.2736386478  HOAC      115             0.0000000000
     10601       572  HOAC      DO1           -32.1479454836       19.0387320403       -8.2785221278  HOAC      115             0.0000000000
     10602       572  HOAC      O2            -31.2497353463       21.0242430389       -8.8262492678  HOAC      115             0.0000000000
     10603       572  HOAC      DO2           -31.2363798884       21.0191655870       -8.8131339693  HOAC      115             0.0000000000
     10604       572  HOAC      H             -32.1875409679       21.2344345870       -8.9499470069  HOAC      115             0.0000000000
     10605       572  HOAC      LPO11         -32.3294929690       19.2440438354       -8.3558647614  HOAC      115             0.0000000000
     10606       572  HOAC      LPO12         -31.9756359095       18.7888377484       -8.1901452734  HOAC      115             0.0000000000
     10607       572  HOAC      LPO21         -31.2711596447       21.2398515643       -8.5513784559  HOAC      115             0.0000000000
     10608       572  HOAC      LPO22         -31.2320319655       21.0474056820       -9.1750329863  HOAC      115             0.0000000000
     10609       573  HOAC      C1              6.1615000539       18.2321186465       -9.5970987375  HOAC      116             0.0000000000
     10610       573  HOAC      DC1             6.1638289388       18.2215822529       -9.6123017303  HOAC      116             0.0000000000
     10611       573  HOAC      C2              4.9893588760       19.1153318304       -9.4092485706  HOAC      116             0.0000000000
     10612       573  HOAC      DC2             5.0250719319       19.1032803820       -9.4251826056  HOAC      116             0.0000000000
     10613       573  HOAC      H1              4.7111447874       19.1288437411       -8.3337322526  HOAC      116             0.0000000000
     10614       573  HOAC      H2              4.1199084970       18.7414343463       -9.9911228781  HOAC      116             0.0000000000
     10615       573  HOAC      H3              5.2279948912       20.1515822858       -9.7310541770  HOAC      116             0.0000000000
     10616       573  HOAC      O1              6.2461520174       17.2737893771      -10.3581899339  HOAC      116             0.0000000000
     10617       573  HOAC      DO1             6.2852811651       17.2674702449      -10.3493838170  HOAC      116             0.0000000000
     10618       573  HOAC      O2              7.2188726808       18.6285660693       -8.8360769941  HOAC      116             0.0000000000
     10619       573  HOAC      DO2             7.2228188924       18.6342425027       -8.8466293042  HOAC      116             0.0000000000
     10620       573  HOAC      H               7.9177332274       17.9745330354       -8.9870595327  HOAC      116             0.0000000000
     10621       573  HOAC      LPO11           6.5319219130       17.2291012331      -10.2785750074  HOAC      116             0.0000000000
     10622       573  HOAC      LPO12           5.9611047271       17.3102970383      -10.4443016810  HOAC      116             0.0000000000
     10623       573  HOAC      LPO21           7.4256999301       18.8476694186       -9.0141674522  HOAC      116             0.0000000000
     10624       573  HOAC      LPO22           7.1999297697       18.4911342348       -8.5147459235  HOAC      116             0.0000000000
     10625       574  HOAC      C1             -1.9131444462      -18.4853539323       -6.8054281545  HOAC      117             0.0000000000
     10626       574  HOAC      DC1            -1.9131011036      -18.4837436567       -6.8074003740  HOAC      117             0.0000000000
     10627       574  HOAC      C2             -2.0547862094      -17.2595687252       -7.6353374419  HOAC      117             0.0000000000
     10628       574  HOAC      DC2            -2.0623612637      -17.2872292400       -7.6298881698  HOAC      117             0.0000000000
     10629       574  HOAC      H1             -1.4897382757      -17.3782494591       -8.5845248393  HOAC      117             0.0000000000
     10630       574  HOAC      H2             -1.6615091531      -16.3747793099       -7.0905422074  HOAC      117             0.0000000000
     10631       574  HOAC      H3             -3.1278173210      -17.0906308412       -7.8685438373  HOAC      117             0.0000000000
     10632       574  HOAC      O1             -1.4444527789      -18.5507696335       -5.6780018576  HOAC      117             0.0000000000
     10633       574  HOAC      DO1            -1.4565362955      -18.5756379017       -5.6945112598  HOAC      117             0.0000000000
     10634       574  HOAC      O2             -2.3936246251      -19.5833868716       -7.4603613179  HOAC      117             0.0000000000
     10635       574  HOAC      DO2            -2.3975680781      -19.5786560626       -7.4639988675  HOAC      117             0.0000000000
     10636       574  HOAC      H              -2.2466183084      -20.3360245341       -6.8680044210  HOAC      117             0.0000000000
     10637       574  HOAC      LPO11          -1.4946330251      -18.8463941245       -5.6686155276  HOAC      117             0.0000000000
     10638       574  HOAC      LPO12          -1.3902586264      -18.2557053668       -5.6777328345  HOAC      117             0.0000000000
     10639       574  HOAC      LPO21          -2.7330408323      -19.6320478137       -7.3901562539  HOAC      117             0.0000000000
     10640       574  HOAC      LPO22          -2.1450197445      -19.7289082115       -7.6591555657  HOAC      117             0.0000000000
     10641       575  HOAC      C1             20.5009753101        6.0941721079        5.5740243016  HOAC      118             0.0000000000
     10642       575  HOAC      DC1            20.4853487625        6.0957232406        5.5765303564  HOAC      118             0.0000000000
     10643       575  HOAC      C2             20.4961329427        5.7985229981        7.0369829917  HOAC      118             0.0000000000
     10644       575  HOAC      DC2            20.4934931507        5.7989090910        7.0180861320  HOAC      118             0.0000000000
     10645       575  HOAC      H1             21.0013948327        4.8251491728        7.2146760403  HOAC      118             0.0000000000
     10646       575  HOAC      H2             19.4565322955        5.7532945015        7.4262205508  HOAC      118             0.0000000000
     10647       575  HOAC      H3             21.0552349183        6.5888699626        7.5820312996  HOAC      118             0.0000000000
     10648       575  HOAC      O1             19.5135867902        6.2771135571        4.8726426404  HOAC      118             0.0000000000
     10649       575  HOAC      DO1            19.5284169322        6.2822586904        4.8634494644  HOAC      118             0.0000000000
     10650       575  HOAC      O2             21.7792777913        6.1611855666        5.1143269155  HOAC      118             0.0000000000
     10651       575  HOAC      DO2            21.7654912501        6.1639157367        5.1392967009  HOAC      118             0.0000000000
     10652       575  HOAC      H              21.7906171205        6.2946414640        4.1546280341  HOAC      118             0.0000000000
     10653       575  HOAC      LPO11          19.6866875237        6.3257116526        4.6324877712  HOAC      118             0.0000000000
     10654       575  HOAC      LPO12          19.3320449418        6.2300794152        5.1068014471  HOAC      118             0.0000000000
     10655       575  HOAC      LPO21          21.8977906090        6.4904097930        5.1224583834  HOAC      118             0.0000000000
     10656       575  HOAC      LPO22          21.8993616526        5.8427972871        5.0324198356  HOAC      118             0.0000000000
     10657       576  HOAC      C1              0.6025710549      -27.5415015721       28.2162327342  HOAC      119             0.0000000000
     10658       576  HOAC      DC1             0.5883147007      -27.5522993417       28.2069888750  HOAC      119             0.0000000000
     10659       576  HOAC      C2              0.0440185329      -28.5722835138       29.1146455357  HOAC      119             0.0000000000
     10660       576  HOAC      DC2             0.0317402878      -28.5587605912       29.0915225594  HOAC      119             0.0000000000
     10661       576  HOAC      H1             -1.0632647203      -28.5983759673       29.0276743814  HOAC      119             0.0000000000
     10662       576  HOAC      H2              0.3356527194      -28.3315698158       30.1593117105  HOAC      119             0.0000000000
     10663       576  HOAC      H3              0.4587171684      -29.5702430791       28.8569194238  HOAC      119             0.0000000000
     10664       576  HOAC      O1              1.2455295370      -26.5660721060       28.5477169509  HOAC      119             0.0000000000
     10665       576  HOAC      DO1             1.2375991279      -26.5824976250       28.4970464162  HOAC      119             0.0000000000
     10666       576  HOAC      O2              0.2831908887      -27.7666725907       26.9039131475  HOAC      119             0.0000000000
     10667       576  HOAC      DO2             0.2657496169      -27.7734759674       26.8993639687  HOAC      119             0.0000000000
     10668       576  HOAC      H               0.7430887054      -27.0543091976       26.4348786133  HOAC      119             0.0000000000
     10669       576  HOAC      LPO11           1.2625231990      -26.4739073135       28.2627312206  HOAC      119             0.0000000000
     10670       576  HOAC      LPO12           1.2340799841      -26.6498259551       28.8355610068  HOAC      119             0.0000000000
     10671       576  HOAC      LPO21           0.5145412798      -27.9825812482       26.7543790439  HOAC      119             0.0000000000
     10672       576  HOAC      LPO22          -0.0126105722      -27.6009034598       26.8171831585  HOAC      119             0.0000000000
     10673       577  HOAC      C1              6.0983456463      -33.8400332706      -34.2486930219  HOAC      120             0.0000000000
     10674       577  HOAC      DC1             6.0914291671      -33.8431536599      -34.2429828483  HOAC      120             0.0000000000
     10675       577  HOAC      C2              5.4679291249      -32.6857731171      -34.9377276459  HOAC      120             0.0000000000
     10676       577  HOAC      DC2             5.4785158974      -32.7117223265      -34.9327241335  HOAC      120             0.0000000000
     10677       577  HOAC      H1              6.0984915561      -31.7827889946      -34.7916739061  HOAC      120             0.0000000000
     10678       577  HOAC      H2              4.4509407474      -32.5049724988      -34.5286227953  HOAC      120             0.0000000000
     10679       577  HOAC      H3              5.3843420721      -32.8481913245      -36.0336083562  HOAC      120             0.0000000000
     10680       577  HOAC      O1              5.5168473930      -34.6335394991      -33.5193800614  HOAC      120             0.0000000000
     10681       577  HOAC      DO1             5.5352073469      -34.6421218669      -33.5326314552  HOAC      120             0.0000000000
     10682       577  HOAC      O2              7.4299728782      -33.9474076364      -34.5418569835  HOAC      120             0.0000000000
     10683       577  HOAC      DO2             7.4261788795      -33.9386206860      -34.5470249255  HOAC      120             0.0000000000
     10684       577  HOAC      H               7.7591944470      -34.7372712450      -34.0872256622  HOAC      120             0.0000000000
     10685       577  HOAC      LPO11           5.7699298734      -34.7892906110      -33.4782601238  HOAC      120             0.0000000000
     10686       577  HOAC      LPO12           5.2587926475      -34.4845734865      -33.5542638025  HOAC      120             0.0000000000
     10687       577  HOAC      LPO21           7.4788533428      -34.1336406054      -34.8341376387  HOAC      120             0.0000000000
     10688       577  HOAC      LPO22           7.6235795649      -33.7713206776      -34.3094568247  HOAC      120             0.0000000000
     10689       578  HOAC      C1             28.7435631478        0.9834755882       20.7019864169  HOAC      121             0.0000000000
     10690       578  HOAC      DC1            28.7695707632        0.9951297438       20.6995256946  HOAC      121             0.0000000000
     10691       578  HOAC      C2             29.6264483477       -0.2137054148       20.7936185743  HOAC      121             0.0000000000
     10692       578  HOAC      DC2            29.6248339935       -0.1992664194       20.7817745657  HOAC      121             0.0000000000
     10693       578  HOAC      H1             29.5599789318       -0.6421969766       21.8165055662  HOAC      121             0.0000000000
     10694       578  HOAC      H2             30.6797731812        0.0656087662       20.5772591860  HOAC      121             0.0000000000
     10695       578  HOAC      H3             29.2924740762       -0.9891913000       20.0715355975  HOAC      121             0.0000000000
     10696       578  HOAC      O1             29.1271905805        2.1295571100       20.4877942711  HOAC      121             0.0000000000
     10697       578  HOAC      DO1            29.1185217585        2.1376579401       20.4961483737  HOAC      121             0.0000000000
     10698       578  HOAC      O2             27.4554122324        0.6274791466       20.9078302415  HOAC      121             0.0000000000
     10699       578  HOAC      DO2            27.4908000862        0.6214678522       20.8892288972  HOAC      121             0.0000000000
     10700       578  HOAC      H              26.8685717432        1.3984841884       20.9192524024  HOAC      121             0.0000000000
     10701       578  HOAC      LPO11          28.8460729716        2.2326905308       20.5061351399  HOAC      121             0.0000000000
     10702       578  HOAC      LPO12          29.4115810258        2.0362012413       20.4676260674  HOAC      121             0.0000000000
     10703       578  HOAC      LPO21          27.2943256156        0.5606434957       20.6043766246  HOAC      121             0.0000000000
     10704       578  HOAC      LPO22          27.3817275834        0.6176060112       21.2498435361  HOAC      121             0.0000000000
     10705       579  HOAC      C1            -14.1185128676        6.5920647935      -20.2186631485  HOAC      122             0.0000000000
     10706       579  HOAC      DC1           -14.1292064016        6.5946439313      -20.2199796055  HOAC      122             0.0000000000
     10707       579  HOAC      C2            -14.5258416432        7.1343470268      -21.5417748238  HOAC      122             0.0000000000
     10708       579  HOAC      DC2           -14.5402351612        7.1357292675      -21.5139899788  HOAC      122             0.0000000000
     10709       579  HOAC      H1            -15.3504767474        7.8693625001      -21.4232412781  HOAC      122             0.0000000000
     10710       579  HOAC      H2            -14.8595990094        6.3136898969      -22.2121843223  HOAC      122             0.0000000000
     10711       579  HOAC      H3            -13.6464280360        7.6383303485      -21.9966962683  HOAC      122             0.0000000000
     10712       579  HOAC      O1            -14.0958149590        5.4121673590      -19.9011108299  HOAC      122             0.0000000000
     10713       579  HOAC      DO1           -14.1010282174        5.4384543593      -19.8873960455  HOAC      122             0.0000000000
     10714       579  HOAC      O2            -13.8639946348        7.5996917318      -19.3324056023  HOAC      122             0.0000000000
     10715       579  HOAC      DO2           -13.8859544528        7.6074543297      -19.3358881434  HOAC      122             0.0000000000
     10716       579  HOAC      H             -13.4969335610        7.1774704750      -18.5412315516  HOAC      122             0.0000000000
     10717       579  HOAC      LPO11         -14.0257221201        5.4841694934      -19.6184401972  HOAC      122             0.0000000000
     10718       579  HOAC      LPO12         -14.1657133121        5.3300553358      -20.1810605323  HOAC      122             0.0000000000
     10719       579  HOAC      LPO21         -13.5413609486        7.7274958576      -19.3779425096  HOAC      122             0.0000000000
     10720       579  HOAC      LPO22         -14.1439792478        7.6637348444      -19.1323878625  HOAC      122             0.0000000000
     10721       580  HOAC      C1             23.4143624224       -2.3654950970      -29.6565340284  HOAC      123             0.0000000000
     10722       580  HOAC      DC1            23.4060007577       -2.3506954992      -29.6541549316  HOAC      123             0.0000000000
     10723       580  HOAC      C2             22.7723831942       -2.1401669175      -28.3457931557  HOAC      123             0.0000000000
     10724       580  HOAC      DC2            22.7766678677       -2.1183008864      -28.3637117083  HOAC      123             0.0000000000
     10725       580  HOAC      H1             22.9193590037       -3.0273436956      -27.6933849426  HOAC      123             0.0000000000
     10726       580  HOAC      H2             21.6800881383       -1.9761628275      -28.4654391723  HOAC      123             0.0000000000
     10727       580  HOAC      H3             23.2211623667       -1.2418141656      -27.8705241908  HOAC      123             0.0000000000
     10728       580  HOAC      O1             22.8161145130       -2.3235588811      -30.7192716268  HOAC      123             0.0000000000
     10729       580  HOAC      DO1            22.8286626198       -2.3281417748      -30.7060025789  HOAC      123             0.0000000000
     10730       580  HOAC      O2             24.7700748977       -2.4356483702      -29.5599932540  HOAC      123             0.0000000000
     10731       580  HOAC      DO2            24.7663508336       -2.4010485801      -29.5451650941  HOAC      123             0.0000000000
     10732       580  HOAC      H              25.1018930266       -2.6727423769      -30.4389950522  HOAC      123             0.0000000000
     10733       580  HOAC      LPO11          23.0745348738       -2.3350979343      -30.8712116392  HOAC      123             0.0000000000
     10734       580  HOAC      LPO12          22.5525604563       -2.3116599641      -30.5764511977  HOAC      123             0.0000000000
     10735       580  HOAC      LPO21          24.9160271859       -2.1237982746      -29.6228219694  HOAC      123             0.0000000000
     10736       580  HOAC      LPO22          24.8722314607       -2.7576311724      -29.4683902424  HOAC      123             0.0000000000
     10737       581  HOAC      C1             10.4600639202        2.0657739619       -6.0771941075  HOAC      124             0.0000000000
     10738       581  HOAC      DC1            10.4677235252        2.0526186578       -6.0650439662  HOAC      124             0.0000000000
     10739       581  HOAC      C2             11.2850188993        1.0008624667       -5.4619464572  HOAC      124             0.0000000000
     10740       581  HOAC      DC2            11.2812830057        0.9980935020       -5.4529273404  HOAC      124             0.0000000000
     10741       581  HOAC      H1             12.2489644835        0.9098683485       -6.0067858658  HOAC      124             0.0000000000
     10742       581  HOAC      H2             10.7517877006        0.0293474906       -5.5403310318  HOAC      124             0.0000000000
     10743       581  HOAC      H3             11.4799199423        1.2512883257       -4.3972298408  HOAC      124             0.0000000000
     10744       581  HOAC      O1              9.2933532353        1.9120555680       -6.3783436685  HOAC      124             0.0000000000
     10745       581  HOAC      DO1             9.3121568744        1.9309912955       -6.3606312299  HOAC      124             0.0000000000
     10746       581  HOAC      O2             11.1105313413        3.2559545668       -6.1448151189  HOAC      124             0.0000000000
     10747       581  HOAC      DO2            11.1221570830        3.2412431976       -6.1317502660  HOAC      124             0.0000000000
     10748       581  HOAC      H              10.4989292333        3.8961629198       -6.5385626602  HOAC      124             0.0000000000
     10749       581  HOAC      LPO11           9.2675095765        2.2027739981       -6.4477331467  HOAC      124             0.0000000000
     10750       581  HOAC      LPO12           9.3091392769        1.6200120101       -6.3115502468  HOAC      124             0.0000000000
     10751       581  HOAC      LPO21          11.0642970056        3.4403838137       -5.8509644101  HOAC      124             0.0000000000
     10752       581  HOAC      LPO22          11.2856194494        3.2855935508       -6.4464202996  HOAC      124             0.0000000000
     10753       582  HOAC      C1             10.8071989976       28.0779563631       11.7968409377  HOAC      125             0.0000000000
     10754       582  HOAC      DC1            10.8250748144       28.0710425547       11.8106585402  HOAC      125             0.0000000000
     10755       582  HOAC      C2              9.5766067238       27.2801643161       12.0242117904  HOAC      125             0.0000000000
     10756       582  HOAC      DC2             9.6159948888       27.3063819170       12.0298186693  HOAC      125             0.0000000000
     10757       582  HOAC      H1              8.7814554640       27.9302523287       12.4478166190  HOAC      125             0.0000000000
     10758       582  HOAC      H2              9.7705410969       26.4333457209       12.7167496791  HOAC      125             0.0000000000
     10759       582  HOAC      H3              9.2019080184       26.8681568626       11.0628732765  HOAC      125             0.0000000000
     10760       582  HOAC      O1             11.9047161168       27.8781279016       12.3095265760  HOAC      125             0.0000000000
     10761       582  HOAC      DO1            11.9206298160       27.8917439038       12.2886615017  HOAC      125             0.0000000000
     10762       582  HOAC      O2             10.5786515433       29.1008909737       10.9313757673  HOAC      125             0.0000000000
     10763       582  HOAC      DO2            10.5768878224       29.0906585604       10.9458421671  HOAC      125             0.0000000000
     10764       582  HOAC      H              11.4028361977       29.5938953992       10.8024289102  HOAC      125             0.0000000000
     10765       582  HOAC      LPO11          12.0209753073       28.1139869444       12.1651163528  HOAC      125             0.0000000000
     10766       582  HOAC      LPO12          11.7978177676       27.6405645004       12.4583095500  HOAC      125             0.0000000000
     10767       582  HOAC      LPO21          10.6295500292       28.9983439079       10.6006289708  HOAC      125             0.0000000000
     10768       582  HOAC      LPO22          10.4748447356       29.3881714474       11.1022385078  HOAC      125             0.0000000000
     10769       583  HOAC      C1            -33.1123063188       24.6927405849       -8.3886062842  HOAC      126             0.0000000000
     10770       583  HOAC      DC1           -33.1257721290       24.6959727882       -8.3851889150  HOAC      126             0.0000000000
     10771       583  HOAC      C2            -34.5923321195       24.8061525909       -8.4876538502  HOAC      126             0.0000000000
     10772       583  HOAC      DC2           -34.5857247987       24.8008719954       -8.4825915141  HOAC      126             0.0000000000
     10773       583  HOAC      H1            -35.0001895567       23.9608805033       -9.0822027632  HOAC      126             0.0000000000
     10774       583  HOAC      H2            -34.8610705163       25.7642455427       -8.9817778935  HOAC      126             0.0000000000
     10775       583  HOAC      H3            -35.0292967233       24.7952822220       -7.4662505164  HOAC      126             0.0000000000
     10776       583  HOAC      O1            -32.3330243204       25.5942805624       -8.6475873898  HOAC      126             0.0000000000
     10777       583  HOAC      DO1           -32.3394465970       25.5716069990       -8.6459598493  HOAC      126             0.0000000000
     10778       583  HOAC      O2            -32.7343855290       23.4689119205       -7.9170402316  HOAC      126             0.0000000000
     10779       583  HOAC      DO2           -32.7584269627       23.4697005543       -7.9082894273  HOAC      126             0.0000000000
     10780       583  HOAC      H             -31.7691374638       23.4180199294       -7.9853569785  HOAC      126             0.0000000000
     10781       583  HOAC      LPO11         -32.1001608500       25.4233243410       -8.5666641264  HOAC      126             0.0000000000
     10782       583  HOAC      LPO12         -32.5591962314       25.7729781512       -8.7307344789  HOAC      126             0.0000000000
     10783       583  HOAC      LPO21         -32.6774062314       23.4802476095       -7.5718955347  HOAC      126             0.0000000000
     10784       583  HOAC      LPO22         -32.7331454526       23.2310966223       -8.1738326501  HOAC      126             0.0000000000
     10785       584  HOAC      C1            -19.3551175008      -28.7476625469       31.3556214270  HOAC      127             0.0000000000
     10786       584  HOAC      DC1           -19.3428543384      -28.7666715886       31.3646022494  HOAC      127             0.0000000000
     10787       584  HOAC      C2            -18.5828938199      -27.7156145470       32.0975646261  HOAC      127             0.0000000000
     10788       584  HOAC      DC2           -18.5857610384      -27.7441225232       32.0976341717  HOAC      127             0.0000000000
     10789       584  HOAC      H1            -18.5431623199      -26.7766695507       31.5050068637  HOAC      127             0.0000000000
     10790       584  HOAC      H2            -17.5491286004      -28.0653522347       32.3057328825  HOAC      127             0.0000000000
     10791       584  HOAC      H3            -19.1000604417      -27.4905824788       33.0547585742  HOAC      127             0.0000000000
     10792       584  HOAC      O1            -18.9338552070      -29.8487672297       31.0108632184  HOAC      127             0.0000000000
     10793       584  HOAC      DO1           -18.9546809471      -29.8554129101       31.0097591333  HOAC      127             0.0000000000
     10794       584  HOAC      O2            -20.6554173137      -28.3734151958       31.2210576518  HOAC      127             0.0000000000
     10795       584  HOAC      DO2           -20.6444451220      -28.3790508801       31.2375771149  HOAC      127             0.0000000000
     10796       584  HOAC      H             -21.1204894739      -29.0473890367       30.7029571331  HOAC      127             0.0000000000
     10797       584  HOAC      LPO11         -19.2074757276      -29.9305079633       30.9189379052  HOAC      127             0.0000000000
     10798       584  HOAC      LPO12         -18.6566433982      -29.7764134847       31.0998494456  HOAC      127             0.0000000000
     10799       584  HOAC      LPO21         -20.8483130762      -28.4943954987       31.4868677177  HOAC      127             0.0000000000
     10800       584  HOAC      LPO22         -20.6992277689      -28.1742627422       30.9365950986  HOAC      127             0.0000000000
     10801       585  HOAC      C1            -27.7513852766      -32.1179435956       25.4209415099  HOAC      128             0.0000000000
     10802       585  HOAC      DC1           -27.7448312949      -32.1415224637       25.4191100699  HOAC      128             0.0000000000
     10803       585  HOAC      C2            -26.4829372740      -32.0620564136       24.6363699809  HOAC      128             0.0000000000
     10804       585  HOAC      DC2           -26.4910065237      -32.0815091611       24.6368016489  HOAC      128             0.0000000000
     10805       585  HOAC      H1            -26.7189574550      -31.8328466948       23.5752015775  HOAC      128             0.0000000000
     10806       585  HOAC      H2            -25.9496688782      -33.0353662859       24.6874944463  HOAC      128             0.0000000000
     10807       585  HOAC      H3            -25.8327984018      -31.2597416737       25.0461644477  HOAC      128             0.0000000000
     10808       585  HOAC      O1            -28.1944544322      -33.1169490537       25.9799412274  HOAC      128             0.0000000000
     10809       585  HOAC      DO1           -28.2083352338      -33.1090022622       25.9776195068  HOAC      128             0.0000000000
     10810       585  HOAC      O2            -28.4038817434      -30.9325869196       25.3673998851  HOAC      128             0.0000000000
     10811       585  HOAC      DO2           -28.3941164738      -30.9557854596       25.3539168263  HOAC      128             0.0000000000
     10812       585  HOAC      H             -29.1752861684      -30.9576265088       25.9532917113  HOAC      128             0.0000000000
     10813       585  HOAC      LPO11         -28.4428167000      -32.9686914964       26.0595394729  HOAC      128             0.0000000000
     10814       585  HOAC      LPO12         -27.9498717995      -33.2737287028       25.9051115714  HOAC      128             0.0000000000
     10815       585  HOAC      LPO21         -28.2767731540      -30.7092484064       25.6050199916  HOAC      128             0.0000000000
     10816       585  HOAC      LPO22         -28.6436357789      -30.9334437403       25.1124150457  HOAC      128             0.0000000000
     10817       586  HOAC      C1             21.8052763926       29.1335249882      -12.0734431019  HOAC      129             0.0000000000
     10818       586  HOAC      DC1            21.8002697959       29.1499734719      -12.0708880378  HOAC      129             0.0000000000
     10819       586  HOAC      C2             22.7283913849       30.2389603556      -12.4610656760  HOAC      129             0.0000000000
     10820       586  HOAC      DC2            22.7166079137       30.2415920982      -12.4579985734  HOAC      129             0.0000000000
     10821       586  HOAC      H1             23.6679011980       30.1580875365      -11.8736119346  HOAC      129             0.0000000000
     10822       586  HOAC      H2             22.2486604924       31.2216142036      -12.2646714623  HOAC      129             0.0000000000
     10823       586  HOAC      H3             22.9655778911       30.1564442624      -13.5433108682  HOAC      129             0.0000000000
     10824       586  HOAC      O1             20.7010544504       29.2887459583      -11.5681259553  HOAC      129             0.0000000000
     10825       586  HOAC      DO1            20.7110698064       29.2805759293      -11.5708736878  HOAC      129             0.0000000000
     10826       586  HOAC      O2             22.3448964346       27.9227733369      -12.3602784861  HOAC      129             0.0000000000
     10827       586  HOAC      DO2            22.3486086844       27.9470999628      -12.3653972960  HOAC      129             0.0000000000
     10828       586  HOAC      H              21.7188383441       27.2276025979      -12.1077910387  HOAC      129             0.0000000000
     10829       586  HOAC      LPO11          20.6577402738       28.9920311918      -11.5589482925  HOAC      129             0.0000000000
     10830       586  HOAC      LPO12          20.7349236901       29.5867884037      -11.5729813995  HOAC      129             0.0000000000
     10831       586  HOAC      LPO21          22.2662458925       27.8252833037      -12.6870961503  HOAC      129             0.0000000000
     10832       586  HOAC      LPO22          22.5322886616       27.8024616703      -12.0902613456  HOAC      129             0.0000000000
     10833       587  HOAC      C1             32.3606001727        9.1205634979       31.0696110504  HOAC      130             0.0000000000
     10834       587  HOAC      DC1            32.3606117436        9.1300776612       31.0709579821  HOAC      130             0.0000000000
     10835       587  HOAC      C2             31.2525851368        8.8737319817       32.0263441154  HOAC      130             0.0000000000
     10836       587  HOAC      DC2            31.2764927723        8.9067627690       32.0042058658  HOAC      130             0.0000000000
     10837       587  HOAC      H1             31.3005858533        9.6063686400       32.8601669140  HOAC      130             0.0000000000
     10838       587  HOAC      H2             31.3312669653        7.8504765403       32.4518772777  HOAC      130             0.0000000000
     10839       587  HOAC      H3             30.2721428488        8.9652027227       31.5118666878  HOAC      130             0.0000000000
     10840       587  HOAC      O1             33.2788341615        8.3600394504       30.7989363543  HOAC      130             0.0000000000
     10841       587  HOAC      DO1            33.2776402170        8.3920714971       30.7867288800  HOAC      130             0.0000000000
     10842       587  HOAC      O2             32.2811644024       10.3816083902       30.5343017029  HOAC      130             0.0000000000
     10843       587  HOAC      DO2            32.2726270904       10.3980448294       30.5399997100  HOAC      130             0.0000000000
     10844       587  HOAC      H              33.0510548826       10.4437656661       29.9491810987  HOAC      130             0.0000000000
     10845       587  HOAC      LPO11          33.4026427205        8.5653042731       30.6185540013  HOAC      130             0.0000000000
     10846       587  HOAC      LPO12          33.1628900128        8.1482609576       30.9770004562  HOAC      130             0.0000000000
     10847       587  HOAC      LPO21          32.0903323910       10.3809108367       30.2409032421  HOAC      130             0.0000000000
     10848       587  HOAC      LPO22          32.4480101887       10.6137189797       30.7362600101  HOAC      130             0.0000000000
     10849       588  HOAC      C1            -18.1717406423      -22.8650496457        0.2437389583  HOAC      131             0.0000000000
     10850       588  HOAC      DC1           -18.1690202387      -22.8702438368        0.2361535342  HOAC      131             0.0000000000
     10851       588  HOAC      C2            -19.5543155575      -23.2078427538       -0.1327558585  HOAC      131             0.0000000000
     10852       588  HOAC      DC2           -19.5409581546      -23.1952870565       -0.1103977106  HOAC      131             0.0000000000
     10853       588  HOAC      H1            -19.9619356540      -23.9447821047        0.5918731851  HOAC      131             0.0000000000
     10854       588  HOAC      H2            -19.5763824927      -23.6545098326       -1.1497723633  HOAC      131             0.0000000000
     10855       588  HOAC      H3            -20.1655975302      -22.2802124137       -0.1452979432  HOAC      131             0.0000000000
     10856       588  HOAC      O1            -17.1892898350      -23.0399817307       -0.4547837934  HOAC      131             0.0000000000
     10857       588  HOAC      DO1           -17.1778686981      -23.0177272159       -0.4232752104  HOAC      131             0.0000000000
     10858       588  HOAC      O2            -18.0853208816      -22.3000432108        1.4818676154  HOAC      131             0.0000000000
     10859       588  HOAC      DO2           -18.0899554617      -22.3033691900        1.4754370349  HOAC      131             0.0000000000
     10860       588  HOAC      H             -17.1490330938      -22.0920634104        1.6199638903  HOAC      131             0.0000000000
     10861       588  HOAC      LPO11         -17.0118405554      -22.9211387680       -0.2440989496  HOAC      131             0.0000000000
     10862       588  HOAC      LPO12         -17.3582933735      -23.1603285153       -0.6714735611  HOAC      131             0.0000000000
     10863       588  HOAC      LPO21         -18.1292935097      -21.9532657527        1.4642096843  HOAC      131             0.0000000000
     10864       588  HOAC      LPO22         -18.0367982010      -22.5445325358        1.7275717452  HOAC      131             0.0000000000
     10865       589  HOAC      C1            -19.4694345687       13.4272676203       -7.1767251188  HOAC      132             0.0000000000
     10866       589  HOAC      DC1           -19.4749403386       13.4295643157       -7.1744172328  HOAC      132             0.0000000000
     10867       589  HOAC      C2            -19.6160146286       13.7025178174       -8.6203729848  HOAC      132             0.0000000000
     10868       589  HOAC      DC2           -19.6211602305       13.6973631012       -8.5952050645  HOAC      132             0.0000000000
     10869       589  HOAC      H1            -18.7128581478       14.2342686785       -8.9889789990  HOAC      132             0.0000000000
     10870       589  HOAC      H2            -20.5060135788       14.3437038834       -8.7967342544  HOAC      132             0.0000000000
     10871       589  HOAC      H3            -19.7367443785       12.7467395121       -9.1737563605  HOAC      132             0.0000000000
     10872       589  HOAC      O1            -20.1750425266       13.8991800629       -6.3025809691  HOAC      132             0.0000000000
     10873       589  HOAC      DO1           -20.1535631280       13.8758994331       -6.2966387690  HOAC      132             0.0000000000
     10874       589  HOAC      O2            -18.4591990982       12.5648970960       -6.8980567625  HOAC      132             0.0000000000
     10875       589  HOAC      DO2           -18.4621983526       12.5640065502       -6.8993930842  HOAC      132             0.0000000000
     10876       589  HOAC      H             -18.4244353574       12.4700771784       -5.9343339468  HOAC      132             0.0000000000
     10877       589  HOAC      LPO11         -20.0233238260       13.7490502740       -6.0917671119  HOAC      132             0.0000000000
     10878       589  HOAC      LPO12         -20.3328250841       14.0533653750       -6.5058826023  HOAC      132             0.0000000000
     10879       589  HOAC      LPO21         -18.5743906292       12.2344092507       -6.8951079917  HOAC      132             0.0000000000
     10880       589  HOAC      LPO22         -18.1559503811       12.7356556010       -6.8608848844  HOAC      132             0.0000000000
     10881       590  HOAC      C1            -19.9057726278      -10.8424950560      -25.1149103888  HOAC      133             0.0000000000
     10882       590  HOAC      DC1           -19.9011871052      -10.8543136052      -25.1179479139  HOAC      133             0.0000000000
     10883       590  HOAC      C2            -19.3978194100       -9.4825841261      -25.3595796885  HOAC      133             0.0000000000
     10884       590  HOAC      DC2           -19.4196706035       -9.5247621309      -25.3584378704  HOAC      133             0.0000000000
     10885       590  HOAC      H1            -19.2810297545       -9.3186880949      -26.4522000563  HOAC      133             0.0000000000
     10886       590  HOAC      H2            -18.4148286109       -9.3530633803      -24.8583068433  HOAC      133             0.0000000000
     10887       590  HOAC      H3            -20.0994187273       -8.7212756448      -24.9564806986  HOAC      133             0.0000000000
     10888       590  HOAC      O1            -19.3124640584      -11.7328225239      -24.5245492192  HOAC      133             0.0000000000
     10889       590  HOAC      DO1           -19.3408126806      -11.7485311776      -24.5381757102  HOAC      133             0.0000000000
     10890       590  HOAC      O2            -21.1108879624      -11.0548287606      -25.7220897603  HOAC      133             0.0000000000
     10891       590  HOAC      DO2           -21.0968891014      -11.0561813464      -25.7429872241  HOAC      133             0.0000000000
     10892       590  HOAC      H             -21.4578456445      -11.8849533510      -25.3622640647  HOAC      133             0.0000000000
     10893       590  HOAC      LPO11         -19.5309517178      -11.9281396635      -24.5886924780  HOAC      133             0.0000000000
     10894       590  HOAC      LPO12         -19.0888921752      -11.5451348444      -24.4553469938  HOAC      133             0.0000000000
     10895       590  HOAC      LPO21         -21.3699085902      -10.9034408323      -25.5418399072  HOAC      133             0.0000000000
     10896       590  HOAC      LPO22         -21.0708870893      -11.2353604781      -26.0192567657  HOAC      133             0.0000000000
     10897       591  HOAC      C1             35.4281949441      -36.3067296435       -6.3033439105  HOAC      134             0.0000000000
     10898       591  HOAC      DC1            35.4369264908      -36.3095240410       -6.2952475514  HOAC      134             0.0000000000
     10899       591  HOAC      C2             36.8385562761      -36.7684556384       -6.2379128650  HOAC      134             0.0000000000
     10900       591  HOAC      DC2            36.8279574494      -36.7716955357       -6.2294523259  HOAC      134             0.0000000000
     10901       591  HOAC      H1             37.0327152370      -37.2064817033       -5.2355374530  HOAC      134             0.0000000000
     10902       591  HOAC      H2             37.5189773273      -35.9045914800       -6.3963013415  HOAC      134             0.0000000000
     10903       591  HOAC      H3             37.0253329095      -37.5327791034       -7.0222884958  HOAC      134             0.0000000000
     10904       591  HOAC      O1             35.0677902172      -35.1466588222       -6.2774688200  HOAC      134             0.0000000000
     10905       591  HOAC      DO1            35.0466431202      -35.1713277815       -6.2621122089  HOAC      134             0.0000000000
     10906       591  HOAC      O2             34.5460822967      -37.3327063590       -6.2423258122  HOAC      134             0.0000000000
     10907       591  HOAC      DO2            34.5579385655      -37.3354812212       -6.2226368327  HOAC      134             0.0000000000
     10908       591  HOAC      H              33.6698333743      -36.9473962951       -6.3929411516  HOAC      134             0.0000000000
     10909       591  HOAC      LPO11          34.7805460234      -35.2308610430       -6.2574498504  HOAC      134             0.0000000000
     10910       591  HOAC      LPO12          35.3519283785      -35.0524589031       -6.2972647934  HOAC      134             0.0000000000
     10911       591  HOAC      LPO21          34.5030568514      -37.4792723966       -6.5572340649  HOAC      134             0.0000000000
     10912       591  HOAC      LPO22          34.4350509028      -37.3825572218       -5.9141689578  HOAC      134             0.0000000000
     10913       592  HOAC      C1              1.0951873033       17.0840418789      -18.6021509924  HOAC      135             0.0000000000
     10914       592  HOAC      DC1             1.1075622603       17.0808603121      -18.6048712972  HOAC      135             0.0000000000
     10915       592  HOAC      C2              1.3650944296       17.1252995428      -20.0626084064  HOAC      135             0.0000000000
     10916       592  HOAC      DC2             1.3604212239       17.1194905481      -20.0501878971  HOAC      135             0.0000000000
     10917       592  HOAC      H1              0.4835939796       16.7444320317      -20.6213730218  HOAC      135             0.0000000000
     10918       592  HOAC      H2              2.2350932605       16.4807724627      -20.3116222191  HOAC      135             0.0000000000
     10919       592  HOAC      H3              1.5714181262       18.1742359568      -20.3650715153  HOAC      135             0.0000000000
     10920       592  HOAC      O1              1.8220060595       16.5726976467      -17.7609710380  HOAC      135             0.0000000000
     10921       592  HOAC      DO1             1.8075279400       16.5883457342      -17.7568550021  HOAC      135             0.0000000000
     10922       592  HOAC      O2             -0.0490708241       17.7544533807      -18.2990288215  HOAC      135             0.0000000000
     10923       592  HOAC      DO2            -0.0317165494       17.7583834135      -18.3090966598  HOAC      135             0.0000000000
     10924       592  HOAC      H              -0.2521044371       17.6172176166      -17.3615296497  HOAC      135             0.0000000000
     10925       592  HOAC      LPO11           1.6405118767       16.6647786964      -17.5405601901  HOAC      135             0.0000000000
     10926       592  HOAC      LPO12           2.0097200230       16.4762407482      -17.9741834548  HOAC      135             0.0000000000
     10927       592  HOAC      LPO21           0.0210776917       18.0826845793      -18.1998145785  HOAC      135             0.0000000000
     10928       592  HOAC      LPO22          -0.3300015673       17.5529049680      -18.3533993544  HOAC      135             0.0000000000
     10929       593  HOAC      C1            -12.3803970835      -25.3306657922       12.9843461685  HOAC      136             0.0000000000
     10930       593  HOAC      DC1           -12.3743905294      -25.3630235072       12.9819554890  HOAC      136             0.0000000000
     10931       593  HOAC      C2            -11.2809290500      -25.0454746675       12.0194694499  HOAC      136             0.0000000000
     10932       593  HOAC      DC2           -11.2903098280      -25.0529311523       12.0388805301  HOAC      136             0.0000000000
     10933       593  HOAC      H1            -11.7155775362      -24.6098937254       11.0944446187  HOAC      136             0.0000000000
     10934       593  HOAC      H2            -10.7240850875      -25.9753953232       11.7755568094  HOAC      136             0.0000000000
     10935       593  HOAC      H3            -10.5652456355      -24.3129838887       12.4502542095  HOAC      136             0.0000000000
     10936       593  HOAC      O1            -12.7234550262      -26.4543840129       13.3379536282  HOAC      136             0.0000000000
     10937       593  HOAC      DO1           -12.7335128244      -26.4693359603       13.3105312790  HOAC      136             0.0000000000
     10938       593  HOAC      O2            -12.9910186815      -24.1806385911       13.3377558778  HOAC      136             0.0000000000
     10939       593  HOAC      DO2           -12.9602586804      -24.1954068152       13.3075163741  HOAC      136             0.0000000000
     10940       593  HOAC      H             -13.6813225330      -24.3182772164       14.0037117333  HOAC      136             0.0000000000
     10941       593  HOAC      LPO11         -12.9508642625      -26.3405880356       13.4971249661  HOAC      136             0.0000000000
     10942       593  HOAC      LPO12         -12.4989735672      -26.5777701974       13.1818001010  HOAC      136             0.0000000000
     10943       593  HOAC      LPO21         -12.8238667325      -24.0273206395       13.6043151239  HOAC      136             0.0000000000
     10944       593  HOAC      LPO22         -13.2645239442      -24.1153357163       13.1293562477  HOAC      136             0.0000000000
     10945       594  HOAC      C1             29.5507938747      -35.6807830528      -33.9778036526  HOAC      137             0.0000000000
     10946       594  HOAC      DC1            29.5549287282      -35.6744746193      -33.9865587097  HOAC      137             0.0000000000
     10947       594  HOAC      C2             30.3602316396      -34.7590212158      -34.8275075858  HOAC      137             0.0000000000
     10948       594  HOAC      DC2            30.3517761158      -34.7705692786      -34.8246238716  HOAC      137             0.0000000000
     10949       594  HOAC      H1             31.4372107895      -34.8877298522      -34.5869436702  HOAC      137             0.0000000000
     10950       594  HOAC      H2             30.0625414059      -33.7042909339      -34.6451739389  HOAC      137             0.0000000000
     10951       594  HOAC      H3             30.2037624082      -35.0003069529      -35.9006429796  HOAC      137             0.0000000000
     10952       594  HOAC      O1             28.6938237483      -35.3624323485      -33.1700644637  HOAC      137             0.0000000000
     10953       594  HOAC      DO1            28.7088129646      -35.3998853551      -33.1780626494  HOAC      137             0.0000000000
     10954       594  HOAC      O2             29.8703893647      -36.9811934984      -34.2293316551  HOAC      137             0.0000000000
     10955       594  HOAC      DO2            29.8777684546      -36.9698033579      -34.2333900083  HOAC      137             0.0000000000
     10956       594  HOAC      H              29.2779368509      -37.5255268530      -33.6892740490  HOAC      137             0.0000000000
     10957       594  HOAC      LPO11          28.6396821110      -35.6504834297      -33.1060702631  HOAC      137             0.0000000000
     10958       594  HOAC      LPO12          28.7406093569      -35.0716486201      -33.2271252224  HOAC      137             0.0000000000
     10959       594  HOAC      LPO21          29.6866064771      -37.1047607835      -34.5003574404  HOAC      137             0.0000000000
     10960       594  HOAC      LPO22          30.1208476386      -37.0925587461      -34.0116887489  HOAC      137             0.0000000000
     10961       595  HOAC      C1            -15.0644020231       -9.2127605749      -29.1517287219  HOAC      138             0.0000000000
     10962       595  HOAC      DC1           -15.0579158149       -9.2267136659      -29.1518660010  HOAC      138             0.0000000000
     10963       595  HOAC      C2            -15.9194535544       -8.4983142714      -30.1381001378  HOAC      138             0.0000000000
     10964       595  HOAC      DC2           -15.8824367247       -8.5270581314      -30.1182208354  HOAC      138             0.0000000000
     10965       595  HOAC      H1            -15.6191706441       -7.4321890016      -30.2248646639  HOAC      138             0.0000000000
     10966       595  HOAC      H2            -16.9877334725       -8.5216253587      -29.8338706001  HOAC      138             0.0000000000
     10967       595  HOAC      H3            -15.8296761179       -8.9717620705      -31.1391536799  HOAC      138             0.0000000000
     10968       595  HOAC      O1            -15.4332479477       -9.9706208465      -28.2622812783  HOAC      138             0.0000000000
     10969       595  HOAC      DO1           -15.3905351326       -9.9777067890      -28.2622948426  HOAC      138             0.0000000000
     10970       595  HOAC      O2            -13.7301557958       -9.0593271956      -29.4237524217  HOAC      138             0.0000000000
     10971       595  HOAC      DO2           -13.7290568384       -9.0784075048      -29.4371707055  HOAC      138             0.0000000000
     10972       595  HOAC      H             -13.2579377607       -9.4083943899      -28.6529585315  HOAC      138             0.0000000000
     10973       595  HOAC      LPO11         -15.1491456989      -10.0438649986      -28.1996617411  HOAC      138             0.0000000000
     10974       595  HOAC      LPO12         -15.7205021988       -9.9038530500      -28.3172999712  HOAC      138             0.0000000000
     10975       595  HOAC      LPO21         -13.6039082465       -9.3393908874      -29.5914601582  HOAC      138             0.0000000000
     10976       595  HOAC      LPO22         -13.6158516988       -8.7466576839      -29.3157137719  HOAC      138             0.0000000000
     10977       596  HOAC      C1             26.1827796743      -36.4248690165      -36.4084602628  HOAC      139             0.0000000000
     10978       596  HOAC      DC1            26.1857083712      -36.4208859414      -36.4065628290  HOAC      139             0.0000000000
     10979       596  HOAC      C2             27.6264099695      -36.2473917199      -36.7378794739  HOAC      139             0.0000000000
     10980       596  HOAC      DC2            27.6066272095      -36.2422315785      -36.7400528346  HOAC      139             0.0000000000
     10981       596  HOAC      H1             28.1472171526      -37.1948719439      -36.9935396061  HOAC      139             0.0000000000
     10982       596  HOAC      H2             28.1420458227      -35.8190568980      -35.8518941754  HOAC      139             0.0000000000
     10983       596  HOAC      H3             27.7295512496      -35.5439792360      -37.5916322218  HOAC      139             0.0000000000
     10984       596  HOAC      O1             25.6324498125      -35.9868556156      -35.4072920653  HOAC      139             0.0000000000
     10985       596  HOAC      DO1            25.6162665213      -36.0043299825      -35.4265264657  HOAC      139             0.0000000000
     10986       596  HOAC      O2             25.4820565900      -37.0564919398      -37.3947973486  HOAC      139             0.0000000000
     10987       596  HOAC      DO2            25.4910924167      -37.0566170143      -37.3948353000  HOAC      139             0.0000000000
     10988       596  HOAC      H              24.5720329602      -37.1397010814      -37.0724710669  HOAC      139             0.0000000000
     10989       596  HOAC      LPO11          25.3655568371      -36.0817810781      -35.5060710927  HOAC      139             0.0000000000
     10990       596  HOAC      LPO12          25.8946329001      -35.8881815032      -35.2999447406  HOAC      139             0.0000000000
     10991       596  HOAC      LPO21          25.3490899108      -36.8251250090      -37.6212685511  HOAC      139             0.0000000000
     10992       596  HOAC      LPO22          25.4962682784      -37.4039502643      -37.3551647780  HOAC      139             0.0000000000
     10993       597  HOAC      C1             31.3568819192      -12.7721603773       -1.8641910727  HOAC      140             0.0000000000
     10994       597  HOAC      DC1            31.3467522369      -12.7721142660       -1.8661971917  HOAC      140             0.0000000000
     10995       597  HOAC      C2             31.2900193523      -13.6706604887       -0.6856096668  HOAC      140             0.0000000000
     10996       597  HOAC      DC2            31.2993222286      -13.6467807269       -0.7048446830  HOAC      140             0.0000000000
     10997       597  HOAC      H1             32.1357475729      -14.3908954559       -0.7036753874  HOAC      140             0.0000000000
     10998       597  HOAC      H2             30.3297013259      -14.2281677757       -0.6496108700  HOAC      140             0.0000000000
     10999       597  HOAC      H3             31.3287805195      -13.0615568781        0.2427282908  HOAC      140             0.0000000000
     11000       597  HOAC      O1             30.5690673722      -12.7283457210       -2.7987641871  HOAC      140             0.0000000000
     11001       597  HOAC      DO1            30.5856220167      -12.7084634590       -2.8050679120  HOAC      140             0.0000000000
     11002       597  HOAC      O2             32.4216450223      -11.9250228131       -1.7902490323  HOAC      140             0.0000000000
     11003       597  HOAC      DO2            32.4224839911      -11.9237846462       -1.7800843277  HOAC      140             0.0000000000
     11004       597  HOAC      H              32.3755013233      -11.4115707510       -2.6107359237  HOAC      140             0.0000000000
     11005       597  HOAC      LPO11          30.7221893712      -12.5028707770       -2.9241224858  HOAC      140             0.0000000000
     11006       597  HOAC      LPO12          30.4092006364      -12.9534455534       -2.6814070729  HOAC      140             0.0000000000
     11007       597  HOAC      LPO21          32.3333628466      -11.6273168336       -1.6287640262  HOAC      140             0.0000000000
     11008       597  HOAC      LPO22          32.7078794811      -12.0719214490       -1.9280555103  HOAC      140             0.0000000000
     11009       598  HOAC      C1             14.7726537738       -6.0477555319       21.1148329438  HOAC      141             0.0000000000
     11010       598  HOAC      DC1            14.7651521368       -6.0428873709       21.1120476126  HOAC      141             0.0000000000
     11011       598  HOAC      C2             14.8334286066       -5.5571663886       19.7135255650  HOAC      141             0.0000000000
     11012       598  HOAC      DC2            14.8324505196       -5.5678646753       19.7242356549  HOAC      141             0.0000000000
     11013       598  HOAC      H1             15.8272369346       -5.1020426895       19.5147079915  HOAC      141             0.0000000000
     11014       598  HOAC      H2             14.0457700258       -4.7938570275       19.5366816230  HOAC      141             0.0000000000
     11015       598  HOAC      H3             14.6773534683       -6.4153576917       19.0254345547  HOAC      141             0.0000000000
     11016       598  HOAC      O1             13.9060504647       -5.7658387182       21.9297427998  HOAC      141             0.0000000000
     11017       598  HOAC      DO1            13.9157639960       -5.7835802484       21.9276495565  HOAC      141             0.0000000000
     11018       598  HOAC      O2             15.7879602620       -6.9207022814       21.3662612828  HOAC      141             0.0000000000
     11019       598  HOAC      DO2            15.7786828011       -6.9132611023       21.3499519395  HOAC      141             0.0000000000
     11020       598  HOAC      H              15.7476147393       -7.1864471143       22.2972354621  HOAC      141             0.0000000000
     11021       598  HOAC      LPO11          14.0295059056       -5.9493987669       22.1323864837  HOAC      141             0.0000000000
     11022       598  HOAC      LPO12          13.7751721727       -5.5798639238       21.7340791892  HOAC      141             0.0000000000
     11023       598  HOAC      LPO21          15.6876080385       -7.2501918532       21.3040836880  HOAC      141             0.0000000000
     11024       598  HOAC      LPO22          16.0778061740       -6.7503992431       21.4636585233  HOAC      141             0.0000000000
     11025       599  HOAC      C1              8.3547293930        2.7744813942        1.9360269238  HOAC      142             0.0000000000
     11026       599  HOAC      DC1             8.3506678718        2.7730187855        1.9457832786  HOAC      142             0.0000000000
     11027       599  HOAC      C2              8.0377271944        1.4372793356        1.3623391091  HOAC      142             0.0000000000
     11028       599  HOAC      DC2             8.0390375632        1.4533108565        1.3919348899  HOAC      142             0.0000000000
     11029       599  HOAC      H1              8.8780105411        1.0586543821        0.7419456514  HOAC      142             0.0000000000
     11030       599  HOAC      H2              7.1608009098        1.4986116237        0.6829573006  HOAC      142             0.0000000000
     11031       599  HOAC      H3              7.8416029472        0.7089309161        2.1780381109  HOAC      142             0.0000000000
     11032       599  HOAC      O1              7.7592238046        3.8199178958        1.7149584291  HOAC      142             0.0000000000
     11033       599  HOAC      DO1             7.7780825191        3.8162867851        1.7425509358  HOAC      142             0.0000000000
     11034       599  HOAC      O2              9.3534089040        2.7107976174        2.8717193872  HOAC      142             0.0000000000
     11035       599  HOAC      DO2             9.3488855955        2.7049707856        2.8842175541  HOAC      142             0.0000000000
     11036       599  HOAC      H               9.5270880006        3.6312646459        3.1197859527  HOAC      142             0.0000000000
     11037       599  HOAC      LPO11           7.9238691822        3.9633335302        1.9206860535  HOAC      142             0.0000000000
     11038       599  HOAC      LPO12           7.5894808548        3.6854512757        1.5073384419  HOAC      142             0.0000000000
     11039       599  HOAC      LPO21           9.2207265802        2.6775618692        3.1938851613  HOAC      142             0.0000000000
     11040       599  HOAC      LPO22           9.6682569282        2.7210502813        2.7191887197  HOAC      142             0.0000000000
     11041       600  HOAC      C1              0.8568947782       31.7407891714       36.7201274690  HOAC      143             0.0000000000
     11042       600  HOAC      DC1             0.8448449838       31.7397242591       36.7088709157  HOAC      143             0.0000000000
     11043       600  HOAC      C2              1.6477438653       30.4951013486       36.5099165026  HOAC      143             0.0000000000
     11044       600  HOAC      DC2             1.6375981199       30.5442895063       36.5031460489  HOAC      143             0.0000000000
     11045       600  HOAC      H1              1.7395000475       30.2144249604       35.4388784222  HOAC      143             0.0000000000
     11046       600  HOAC      H2              1.1697943174       29.6394841477       37.0331797590  HOAC      143             0.0000000000
     11047       600  HOAC      H3              2.6890375786       30.6041338275       36.8815888330  HOAC      143             0.0000000000
     11048       600  HOAC      O1             -0.2847131025       31.8382509097       37.1521104097  HOAC      143             0.0000000000
     11049       600  HOAC      DO1            -0.2741318412       31.8789889649       37.1337806064  HOAC      143             0.0000000000
     11050       600  HOAC      O2              1.5759080965       32.8228019549       36.3225065824  HOAC      143             0.0000000000
     11051       600  HOAC      DO2             1.5808031401       32.8034683067       36.3216615522  HOAC      143             0.0000000000
     11052       600  HOAC      H               1.0961422582       33.6352876867       36.5430800986  HOAC      143             0.0000000000
     11053       600  HOAC      LPO11          -0.2782275672       32.1361057278       37.1168904561  HOAC      143             0.0000000000
     11054       600  HOAC      LPO12          -0.3009612978       31.5412295527       37.1910245413  HOAC      143             0.0000000000
     11055       600  HOAC      LPO21           1.7943563391       32.9272841628       36.5752195293  HOAC      143             0.0000000000
     11056       600  HOAC      LPO22           1.4978001571       32.9103005747       35.9927443327  HOAC      143             0.0000000000
     11057       601  HOAC      C1            -11.0288335563      -34.7021564228        3.1891032781  HOAC      144             0.0000000000
     11058       601  HOAC      DC1           -11.0239405109      -34.7077201776        3.1914819352  HOAC      144             0.0000000000
     11059       601  HOAC      C2             -9.9173180921      -35.1172565778        4.0924236818  HOAC      144             0.0000000000
     11060       601  HOAC      DC2            -9.9416395959      -35.1302229324        4.0845748514  HOAC      144             0.0000000000
     11061       601  HOAC      H1            -10.1719728425      -34.8386007111        5.1373269625  HOAC      144             0.0000000000
     11062       601  HOAC      H2             -8.9718263254      -34.6087362787        3.8064631495  HOAC      144             0.0000000000
     11063       601  HOAC      H3             -9.7735701896      -36.2175442997        4.0374284988  HOAC      144             0.0000000000
     11064       601  HOAC      O1            -10.9706457224      -33.8993313134        2.2704784262  HOAC      144             0.0000000000
     11065       601  HOAC      DO1           -10.9994613878      -33.9192241227        2.2765169194  HOAC      144             0.0000000000
     11066       601  HOAC      O2            -12.1816731600      -35.3599199038        3.5047846011  HOAC      144             0.0000000000
     11067       601  HOAC      DO2           -12.1743161783      -35.3611825228        3.5145449316  HOAC      144             0.0000000000
     11068       601  HOAC      H             -12.8420468648      -35.0644892337        2.8601232256  HOAC      144             0.0000000000
     11069       601  HOAC      LPO11         -11.2605920262      -33.9429650257        2.2070178868  HOAC      144             0.0000000000
     11070       601  HOAC      LPO12         -10.6802005507      -33.8488146559        2.3260632223  HOAC      144             0.0000000000
     11071       601  HOAC      LPO21         -12.1994366927      -35.6674815673        3.3386813801  HOAC      144             0.0000000000
     11072       601  HOAC      LPO22         -12.3695875535      -35.1779443912        3.7373208209  HOAC      144             0.0000000000
     11073       602  HOAC      C1            -14.9614153057      -12.0047177862       -2.6563675061  HOAC      145             0.0000000000
     11074       602  HOAC      DC1           -14.9696043390      -12.0077330824       -2.6617302836  HOAC      145             0.0000000000
     11075       602  HOAC      C2            -13.5010190593      -11.8257649552       -2.7363737001  HOAC      145             0.0000000000
     11076       602  HOAC      DC2           -13.5432226374      -11.8185490738       -2.7353683024  HOAC      145             0.0000000000
     11077       602  HOAC      H1            -13.2528960133      -10.9552536662       -3.3805522862  HOAC      145             0.0000000000
     11078       602  HOAC      H2            -13.0239618970      -12.7324411444       -3.1661128672  HOAC      145             0.0000000000
     11079       602  HOAC      H3            -13.0871421584      -11.6597317365       -1.7187982072  HOAC      145             0.0000000000
     11080       602  HOAC      O1            -15.5916321208      -12.9733207144       -3.0585773121  HOAC      145             0.0000000000
     11081       602  HOAC      DO1           -15.6051707869      -12.9593995139       -3.0396069313  HOAC      145             0.0000000000
     11082       602  HOAC      O2            -15.5673519309      -10.9149735555       -2.1022618352  HOAC      145             0.0000000000
     11083       602  HOAC      DO2           -15.5697864263      -10.9104149456       -2.1239785405  HOAC      145             0.0000000000
     11084       602  HOAC      H             -16.4938779726      -11.1486916337       -1.9413694677  HOAC      145             0.0000000000
     11085       602  HOAC      LPO11         -15.8505800419      -12.8446343826       -2.9786660978  HOAC      145             0.0000000000
     11086       602  HOAC      LPO12         -15.3380776378      -13.1102964155       -3.1419306650  HOAC      145             0.0000000000
     11087       602  HOAC      LPO21         -15.5388771918      -10.9201632229       -1.7534606647  HOAC      145             0.0000000000
     11088       602  HOAC      LPO22         -15.6968757911      -10.7045979883       -2.3501845860  HOAC      145             0.0000000000
     11089       603  HOAC      C1            -30.8336141808       19.2260459583      -13.5370970767  HOAC      146             0.0000000000
     11090       603  HOAC      DC1           -30.8322364798       19.2308919426      -13.5351365025  HOAC      146             0.0000000000
     11091       603  HOAC      C2            -32.1073742707       18.4694794249      -13.4076536676  HOAC      146             0.0000000000
     11092       603  HOAC      DC2           -32.0891265405       18.5010711618      -13.4150385284  HOAC      146             0.0000000000
     11093       603  HOAC      H1            -32.9011187780       19.1273421582      -12.9935192904  HOAC      146             0.0000000000
     11094       603  HOAC      H2            -31.9746432187       17.6002298894      -12.7286038068  HOAC      146             0.0000000000
     11095       603  HOAC      H3            -32.4277705274       18.0951932732      -14.4034333196  HOAC      146             0.0000000000
     11096       603  HOAC      O1            -29.7688209132       18.9647014153      -12.9926242838  HOAC      146             0.0000000000
     11097       603  HOAC      DO1           -29.7693385594       18.9920736199      -13.0099718892  HOAC      146             0.0000000000
     11098       603  HOAC      O2            -30.9872718881       20.3320981919      -14.3317193212  HOAC      146             0.0000000000
     11099       603  HOAC      DO2           -31.0006349836       20.3431099085      -14.3254636432  HOAC      146             0.0000000000
     11100       603  HOAC      H             -30.1057800025       20.7273264292      -14.4074008647  HOAC      146             0.0000000000
     11101       603  HOAC      LPO11         -29.6417760970       19.2087768781      -13.1121516161  HOAC      146             0.0000000000
     11102       603  HOAC      LPO12         -29.8867574104       18.7183903924      -12.8684394916  HOAC      146             0.0000000000
     11103       603  HOAC      LPO21         -30.9479130448       20.2495637474      -14.6695638815  HOAC      146             0.0000000000
     11104       603  HOAC      LPO22         -31.0657803351       20.6139284297      -14.1396044055  HOAC      146             0.0000000000
     11105       604  HOAC      C1             34.1583188915       10.7086813463       -8.2737018639  HOAC      147             0.0000000000
     11106       604  HOAC      DC1            34.1584583397       10.7102759714       -8.2671226302  HOAC      147             0.0000000000
     11107       604  HOAC      C2             35.5735856658       10.7029878615       -7.8122115620  HOAC      147             0.0000000000
     11108       604  HOAC      DC2            35.5568456409       10.7150506050       -7.8227736386  HOAC      147             0.0000000000
     11109       604  HOAC      H1             36.2176656143       10.2453154573       -8.5932480464  HOAC      147             0.0000000000
     11110       604  HOAC      H2             35.6705748927       10.1180304046       -6.8726697254  HOAC      147             0.0000000000
     11111       604  HOAC      H3             35.9109005132       11.7457657669       -7.6301293453  HOAC      147             0.0000000000
     11112       604  HOAC      O1             33.2202339653       10.1360781236       -7.7377408766  HOAC      147             0.0000000000
     11113       604  HOAC      DO1            33.2141509404       10.1535309993       -7.7612863507  HOAC      147             0.0000000000
     11114       604  HOAC      O2             34.0069158831       11.5010722783       -9.3739357397  HOAC      147             0.0000000000
     11115       604  HOAC      DO2            34.0120242674       11.5060706348       -9.3578401081  HOAC      147             0.0000000000
     11116       604  HOAC      H              33.0877670465       11.4334056075       -9.6731808528  HOAC      147             0.0000000000
     11117       604  HOAC      LPO11          33.0288887343       10.2504680869       -7.9384943046  HOAC      147             0.0000000000
     11118       604  HOAC      LPO12          33.4035456193       10.0167844975       -7.5323975829  HOAC      147             0.0000000000
     11119       604  HOAC      LPO21          33.9174055557       11.8266856018       -9.2819364740  HOAC      147             0.0000000000
     11120       604  HOAC      LPO22          34.0796969306       11.3235248255       -9.6666468962  HOAC      147             0.0000000000
     11121       605  HOAC      C1            -22.8062469477      -29.7132369335       28.0331045522  HOAC      148             0.0000000000
     11122       605  HOAC      DC1           -22.7871821879      -29.7244056260       28.0362630254  HOAC      148             0.0000000000
     11123       605  HOAC      C2            -21.8201757657      -30.8055137455       28.2390689176  HOAC      148             0.0000000000
     11124       605  HOAC      DC2           -21.8179901095      -30.8022943143       28.2417830260  HOAC      148             0.0000000000
     11125       605  HOAC      H1            -21.1797353540      -30.9183341923       27.3382755860  HOAC      148             0.0000000000
     11126       605  HOAC      H2            -22.3726173736      -31.7533241516       28.4145246215  HOAC      148             0.0000000000
     11127       605  HOAC      H3            -21.1929739582      -30.5830505027       29.1287031119  HOAC      148             0.0000000000
     11128       605  HOAC      O1            -23.9976149442      -29.8740568072       28.2076529084  HOAC      148             0.0000000000
     11129       605  HOAC      DO1           -23.9674078212      -29.8820202306       28.2146718597  HOAC      148             0.0000000000
     11130       605  HOAC      O2            -22.2195347042      -28.5294669517       27.6895621518  HOAC      148             0.0000000000
     11131       605  HOAC      DO2           -22.1891654267      -28.5492843201       27.6888727416  HOAC      148             0.0000000000
     11132       605  HOAC      H             -22.9395103330      -27.8910961372       27.5751995829  HOAC      148             0.0000000000
     11133       605  HOAC      LPO11         -24.0509087923      -29.5852455389       28.1464334913  HOAC      148             0.0000000000
     11134       605  HOAC      LPO12         -23.9545907366      -30.1642543494       28.2703769396  HOAC      148             0.0000000000
     11135       605  HOAC      LPO21         -22.1391162033      -28.3426713213       27.9744134414  HOAC      148             0.0000000000
     11136       605  HOAC      LPO22         -22.1823509586      -28.5046514022       27.3424288091  HOAC      148             0.0000000000
     11137       606  HOAC      C1              4.3398365892      -20.1692814726       20.5506207005  HOAC      149             0.0000000000
     11138       606  HOAC      DC1             4.3303164613      -20.1697139075       20.5498147759  HOAC      149             0.0000000000
     11139       606  HOAC      C2              4.2954042371      -18.7033238145       20.6525768835  HOAC      149             0.0000000000
     11140       606  HOAC      DC2             4.2701752900      -18.7401712070       20.6534940553  HOAC      149             0.0000000000
     11141       606  HOAC      H1              3.4178318029      -18.2902096808       20.1107980217  HOAC      149             0.0000000000
     11142       606  HOAC      H2              5.2225168679      -18.2608937614       20.2294470929  HOAC      149             0.0000000000
     11143       606  HOAC      H3              4.2351845303      -18.4349347487       21.7289884670  HOAC      149             0.0000000000
     11144       606  HOAC      O1              5.3142774506      -20.8140153990       20.2224012921  HOAC      149             0.0000000000
     11145       606  HOAC      DO1             5.2887963824      -20.8221768729       20.2333376416  HOAC      149             0.0000000000
     11146       606  HOAC      O2              3.1440924369      -20.7488741795       20.8859134285  HOAC      149             0.0000000000
     11147       606  HOAC      DO2             3.1201560114      -20.7218056314       20.8832412106  HOAC      149             0.0000000000
     11148       606  HOAC      H               3.2897798982      -21.7028566741       20.7984287810  HOAC      149             0.0000000000
     11149       606  HOAC      LPO11           5.1623881801      -21.0705333591       20.2559897672  HOAC      149             0.0000000000
     11150       606  HOAC      LPO12           5.4745742587      -20.5630602442       20.1859809192  HOAC      149             0.0000000000
     11151       606  HOAC      LPO21           3.1274629948      -20.8107427861       21.2300002448  HOAC      149             0.0000000000
     11152       606  HOAC      LPO22           2.9383463473      -20.7822854787       20.6047511414  HOAC      149             0.0000000000
     11153       607  HOAC      C1             14.8990058753       14.5698907038      -29.2865449700  HOAC      150             0.0000000000
     11154       607  HOAC      DC1            14.8965621268       14.5858406474      -29.2921219606  HOAC      150             0.0000000000
     11155       607  HOAC      C2             13.4610313031       14.9359727183      -29.3130427407  HOAC      150             0.0000000000
     11156       607  HOAC      DC2            13.4717195346       14.9340623193      -29.2955483954  HOAC      150             0.0000000000
     11157       607  HOAC      H1             12.9316172873       14.2866354353      -30.0427021783  HOAC      150             0.0000000000
     11158       607  HOAC      H2             13.3386737594       16.0080062471      -29.5777949742  HOAC      150             0.0000000000
     11159       607  HOAC      H3             13.0257274304       14.7788436388      -28.3030219534  HOAC      150             0.0000000000
     11160       607  HOAC      O1             15.8435009021       15.2979225943      -29.5698620402  HOAC      150             0.0000000000
     11161       607  HOAC      DO1            15.8508672988       15.2844962096      -29.5614281402  HOAC      150             0.0000000000
     11162       607  HOAC      O2             15.0359326712       13.2849853403      -28.8812980876  HOAC      150             0.0000000000
     11163       607  HOAC      DO2            15.0159361207       13.2962333893      -28.8886852145  HOAC      150             0.0000000000
     11164       607  HOAC      H              15.9759511216       13.1478375979      -28.6902043679  HOAC      150             0.0000000000
     11165       607  HOAC      LPO11          16.0381250386       15.0777674737      -29.5094205943  HOAC      150             0.0000000000
     11166       607  HOAC      LPO12          15.6569457303       15.5242974020      -29.6327239070  HOAC      150             0.0000000000
     11167       607  HOAC      LPO21          14.9934747881       13.2581084470      -28.5349240690  HOAC      150             0.0000000000
     11168       607  HOAC      LPO22          15.0924171146       13.0733201537      -29.1542584446  HOAC      150             0.0000000000
     11169       608  HOAC      C1             -2.0162664312       21.2979858954       14.1615051476  HOAC      151             0.0000000000
     11170       608  HOAC      DC1            -2.0301004465       21.3020095515       14.1591301603  HOAC      151             0.0000000000
     11171       608  HOAC      C2             -1.3257896914       22.0167513753       13.0560435973  HOAC      151             0.0000000000
     11172       608  HOAC      DC2            -1.3419180505       22.0010682243       13.0810849755  HOAC      151             0.0000000000
     11173       608  HOAC      H1             -0.3120064653       22.3399609806       13.3755746973  HOAC      151             0.0000000000
     11174       608  HOAC      H2             -1.9115753285       22.9093499723       12.7487262815  HOAC      151             0.0000000000
     11175       608  HOAC      H3             -1.2253796177       21.3448941700       12.1769265898  HOAC      151             0.0000000000
     11176       608  HOAC      O1             -3.1382030005       21.5414205729       14.5878817629  HOAC      151             0.0000000000
     11177       608  HOAC      DO1            -3.1360200980       21.5136064905       14.6051406604  HOAC      151             0.0000000000
     11178       608  HOAC      O2             -1.2853861518       20.2451326055       14.6057300523  HOAC      151             0.0000000000
     11179       608  HOAC      DO2            -1.3020034449       20.2463603066       14.5942403163  HOAC      151             0.0000000000
     11180       608  HOAC      H              -1.6769901040       19.9086164102       15.4257082196  HOAC      151             0.0000000000
     11181       608  HOAC      LPO11          -3.1253651306       21.3047688557       14.7718142338  HOAC      151             0.0000000000
     11182       608  HOAC      LPO12          -3.1606339562       21.7801537711       14.4075950127  HOAC      151             0.0000000000
     11183       608  HOAC      LPO21          -1.4026018061       19.9451194371       14.4687899590  HOAC      151             0.0000000000
     11184       608  HOAC      LPO22          -1.0265950677       20.3524351084       14.8155236358  HOAC      151             0.0000000000
     11185       609  HOAC      C1             27.7681583415      -13.4382074544      -12.0846348313  HOAC      152             0.0000000000
     11186       609  HOAC      DC1            27.7631631946      -13.4494804694      -12.0835633138  HOAC      152             0.0000000000
     11187       609  HOAC      C2             27.4707142431      -14.5312388593      -13.0428591721  HOAC      152             0.0000000000
     11188       609  HOAC      DC2            27.4760602544      -14.5220819196      -13.0274926014  HOAC      152             0.0000000000
     11189       609  HOAC      H1             26.7357127704      -14.1930871013      -13.8042705089  HOAC      152             0.0000000000
     11190       609  HOAC      H2             27.0681786578      -15.4156961044      -12.5043227429  HOAC      152             0.0000000000
     11191       609  HOAC      H3             28.4083764483      -14.8012115027      -13.5741080415  HOAC      152             0.0000000000
     11192       609  HOAC      O1             27.6055113313      -13.4955508389      -10.8750992297  HOAC      152             0.0000000000
     11193       609  HOAC      DO1            27.6171856879      -13.4849076353      -10.8917805171  HOAC      152             0.0000000000
     11194       609  HOAC      O2             28.2838686212      -12.3571875034      -12.7179271786  HOAC      152             0.0000000000
     11195       609  HOAC      DO2            28.2787894430      -12.3726772615      -12.7190854403  HOAC      152             0.0000000000
     11196       609  HOAC      H              28.4511279254      -11.6664238573      -12.0592687615  HOAC      152             0.0000000000
     11197       609  HOAC      LPO11          27.7152607466      -13.2183261962      -10.8419094216  HOAC      152             0.0000000000
     11198       609  HOAC      LPO12          27.4943679132      -13.7732669559      -10.8979224402  HOAC      152             0.0000000000
     11199       609  HOAC      LPO21          28.6328612722      -12.3773190757      -12.7352144375  HOAC      152             0.0000000000
     11200       609  HOAC      LPO22          28.0293019406      -12.1433462966      -12.8273243606  HOAC      152             0.0000000000
     11201       610  HOAC      C1             -2.8893357269       35.1553761680      -24.9775225941  HOAC      153             0.0000000000
     11202       610  HOAC      DC1            -2.8704859024       35.1538061783      -24.9734120086  HOAC      153             0.0000000000
     11203       610  HOAC      C2             -2.0994497149       34.0183083113      -25.5206820710  HOAC      153             0.0000000000
     11204       610  HOAC      DC2            -2.0792763057       34.0388689391      -25.5041322048  HOAC      153             0.0000000000
     11205       610  HOAC      H1             -1.5547796964       34.3585941330      -26.4272476397  HOAC      153             0.0000000000
     11206       610  HOAC      H2             -2.7761685334       33.1831659609      -25.8015911251  HOAC      153             0.0000000000
     11207       610  HOAC      H3             -1.3798779579       33.6569785720      -24.7551898720  HOAC      153             0.0000000000
     11208       610  HOAC      O1             -4.0986534333       35.2089285368      -24.8418270989  HOAC      153             0.0000000000
     11209       610  HOAC      DO1            -4.0639271084       35.2281467316      -24.8270089396  HOAC      153             0.0000000000
     11210       610  HOAC      O2             -2.0567281543       36.1635576417      -24.5621953662  HOAC      153             0.0000000000
     11211       610  HOAC      DO2            -2.0305201001       36.1536385053      -24.5558156319  HOAC      153             0.0000000000
     11212       610  HOAC      H              -2.6531511400       36.8649193563      -24.2599829121  HOAC      153             0.0000000000
     11213       610  HOAC      LPO11          -4.0774559813       35.4787411783      -24.7123983288  HOAC      153             0.0000000000
     11214       610  HOAC      LPO12          -4.1302469622       34.9395762661      -24.9700893428  HOAC      153             0.0000000000
     11215       610  HOAC      LPO21          -1.9730141067       36.1252214959      -24.2245234868  HOAC      153             0.0000000000
     11216       610  HOAC      LPO22          -1.9798210438       36.3790561384      -24.8270456905  HOAC      153             0.0000000000
     11217       611  HOAC      C1             29.4387259843       12.1946288139       23.9179064452  HOAC      154             0.0000000000
     11218       611  HOAC      DC1            29.4356681429       12.1956389142       23.9167283820  HOAC      154             0.0000000000
     11219       611  HOAC      C2             30.7849403230       11.5749650366       24.0133958946  HOAC      154             0.0000000000
     11220       611  HOAC      DC2            30.7625683105       11.5939286218       24.0152684961  HOAC      154             0.0000000000
     11221       611  HOAC      H1             31.5668431085       12.3630030017       24.0575003182  HOAC      154             0.0000000000
     11222       611  HOAC      H2             30.9772835184       10.9338542959       23.1266591166  HOAC      154             0.0000000000
     11223       611  HOAC      H3             30.8444615062       10.9419152631       24.9244536393  HOAC      154             0.0000000000
     11224       611  HOAC      O1             28.6439588369       12.0373147724       23.0017881165  HOAC      154             0.0000000000
     11225       611  HOAC      DO1            28.6375670419       12.0532550081       23.0287827549  HOAC      154             0.0000000000
     11226       611  HOAC      O2             29.1519296486       12.9896789730       24.9972407038  HOAC      154             0.0000000000
     11227       611  HOAC      DO2            29.1677014538       13.0016075184       25.0000900404  HOAC      154             0.0000000000
     11228       611  HOAC      H              28.2160895261       13.2236870487       24.9055647222  HOAC      154             0.0000000000
     11229       611  HOAC      LPO11          28.4453136716       12.2175304841       23.1361845286  HOAC      154             0.0000000000
     11230       611  HOAC      LPO12          28.8357990072       11.8557520987       22.8595476703  HOAC      154             0.0000000000
     11231       611  HOAC      LPO21          29.0480675652       12.7968679630       25.2702545900  HOAC      154             0.0000000000
     11232       611  HOAC      LPO22          29.2143260364       13.3262922531       24.9244520337  HOAC      154             0.0000000000
     11233       612  HOAC      C1             14.4975058899      -23.0966760000      -36.5949208236  HOAC      155             0.0000000000
     11234       612  HOAC      DC1            14.5187774956      -23.0971389391      -36.5811236798  HOAC      155             0.0000000000
     11235       612  HOAC      C2             15.8551113989      -22.4981945850      -36.5962891610  HOAC      155             0.0000000000
     11236       612  HOAC      DC2            15.8615803742      -22.5074605535      -36.5729038160  HOAC      155             0.0000000000
     11237       612  HOAC      H1             16.2685891890      -22.6441173403      -35.5754739639  HOAC      155             0.0000000000
     11238       612  HOAC      H2             15.7825186756      -21.4028950036      -36.7676663032  HOAC      155             0.0000000000
     11239       612  HOAC      H3             16.5215207416      -22.9604042217      -37.3556190236  HOAC      155             0.0000000000
     11240       612  HOAC      O1             13.5171036044      -22.5105715821      -36.1846036510  HOAC      155             0.0000000000
     11241       612  HOAC      DO1            13.5340564856      -22.5398487152      -36.1799223743  HOAC      155             0.0000000000
     11242       612  HOAC      O2             14.5085845394      -24.4215360311      -36.8938681901  HOAC      155             0.0000000000
     11243       612  HOAC      DO2            14.5350365833      -24.4174825456      -36.8653411734  HOAC      155             0.0000000000
     11244       612  HOAC      H              13.5922107411      -24.7004718844      -37.0402063312  HOAC      155             0.0000000000
     11245       612  HOAC      LPO11          13.3553894000      -22.7630453879      -36.1948746514  HOAC      155             0.0000000000
     11246       612  HOAC      LPO12          13.6703591871      -22.2530410402      -36.1707925550  HOAC      155             0.0000000000
     11247       612  HOAC      LPO21          14.5441187753      -24.4714857328      -37.2384583022  HOAC      155             0.0000000000
     11248       612  HOAC      LPO22          14.4864552158      -24.6153016074      -36.6032392265  HOAC      155             0.0000000000
     11249       613  HOAC      C1            -20.1424109554       -7.1841757351      -21.4570693688  HOAC      156             0.0000000000
     11250       613  HOAC      DC1           -20.1549341099       -7.1927885613      -21.4653272507  HOAC      156             0.0000000000
     11251       613  HOAC      C2            -19.2591013823       -8.3151414954      -21.0855267863  HOAC      156             0.0000000000
     11252       613  HOAC      DC2           -19.2811283623       -8.3023371951      -21.1193724038  HOAC      156             0.0000000000
     11253       613  HOAC      H1            -18.3998362501       -8.3624800701      -21.7881956218  HOAC      156             0.0000000000
     11254       613  HOAC      H2            -19.8260411369       -9.2692290192      -21.1366864543  HOAC      156             0.0000000000
     11255       613  HOAC      H3            -18.8770681868       -8.1860882781      -20.0502891776  HOAC      156             0.0000000000
     11256       613  HOAC      O1            -21.2786036690       -7.3217438447      -21.8953718559  HOAC      156             0.0000000000
     11257       613  HOAC      DO1           -21.2778737849       -7.3098927035      -21.8938134329  HOAC      156             0.0000000000
     11258       613  HOAC      O2            -19.5278419309       -5.9730394883      -21.3369205809  HOAC      156             0.0000000000
     11259       613  HOAC      DO2           -19.5236124891       -5.9888076670      -21.3402959060  HOAC      156             0.0000000000
     11260       613  HOAC      H             -20.1644019399       -5.2873436774      -21.5890586578  HOAC      156             0.0000000000
     11261       613  HOAC      LPO11         -21.3043912749       -7.0256420960      -21.9360996571  HOAC      156             0.0000000000
     11262       613  HOAC      LPO12         -21.2625240290       -7.6190210160      -21.8583890404  HOAC      156             0.0000000000
     11263       613  HOAC      LPO21         -19.5676887055       -5.8443041830      -21.0139043960  HOAC      156             0.0000000000
     11264       613  HOAC      LPO22         -19.3658767538       -5.8851467062      -21.6344808945  HOAC      156             0.0000000000
     11265       614  HOAC      C1             18.1203571867       -0.1364008975       23.2939800326  HOAC      157             0.0000000000
     11266       614  HOAC      DC1            18.1098970683       -0.1391739478       23.2941320110  HOAC      157             0.0000000000
     11267       614  HOAC      C2             18.5027011137        0.6545385599       24.4969291399  HOAC      157             0.0000000000
     11268       614  HOAC      DC2            18.4901006850        0.6352304312       24.4808554053  HOAC      157             0.0000000000
     11269       614  HOAC      H1             19.5010824846        0.3332531560       24.8634415267  HOAC      157             0.0000000000
     11270       614  HOAC      H2             17.7580696147        0.5114856104       25.3089517903  HOAC      157             0.0000000000
     11271       614  HOAC      H3             18.5431309032        1.7359351721       24.2453982288  HOAC      157             0.0000000000
     11272       614  HOAC      O1             17.1127920049       -0.8237981953       23.1768033363  HOAC      157             0.0000000000
     11273       614  HOAC      DO1            17.1312085373       -0.8250384515       23.1449793783  HOAC      157             0.0000000000
     11274       614  HOAC      O2             19.0110483989       -0.0054440833       22.2665043101  HOAC      157             0.0000000000
     11275       614  HOAC      DO2            18.9984706338        0.0018664889       22.2607144914  HOAC      157             0.0000000000
     11276       614  HOAC      H              18.7199484581       -0.5974613593       21.5567597297  HOAC      157             0.0000000000
     11277       614  HOAC      LPO11          17.1877633544       -0.8950164566       22.8951878963  HOAC      157             0.0000000000
     11278       614  HOAC      LPO12          17.0292101878       -0.7584543054       23.4574174056  HOAC      157             0.0000000000
     11279       614  HOAC      LPO21          18.9140725102        0.2511642606       22.0491386393  HOAC      157             0.0000000000
     11280       614  HOAC      LPO22          19.2767401031       -0.2304732575       22.3021384107  HOAC      157             0.0000000000
     11281       615  HOAC      C1            -31.3136717797      -19.4650380019       -0.9328137492  HOAC      158             0.0000000000
     11282       615  HOAC      DC1           -31.3204816478      -19.4574138250       -0.9543039291  HOAC      158             0.0000000000
     11283       615  HOAC      C2            -31.1700414243      -20.8749161800       -1.3839932461  HOAC      158             0.0000000000
     11284       615  HOAC      DC2           -31.1792992840      -20.8491412854       -1.3879504287  HOAC      158             0.0000000000
     11285       615  HOAC      H1            -30.1188326220      -21.2052070309       -1.2419052175  HOAC      158             0.0000000000
     11286       615  HOAC      H2            -31.4330811175      -20.9711041735       -2.4591113752  HOAC      158             0.0000000000
     11287       615  HOAC      H3            -31.8339783770      -21.5272832094       -0.7774242209  HOAC      158             0.0000000000
     11288       615  HOAC      O1            -31.7603641908      -18.5544490967       -1.6227557479  HOAC      158             0.0000000000
     11289       615  HOAC      DO1           -31.7697478781      -18.5517407655       -1.6155954908  HOAC      158             0.0000000000
     11290       615  HOAC      O2            -30.8864090331      -19.3029996741        0.3457120664  HOAC      158             0.0000000000
     11291       615  HOAC      DO2           -30.8871378235      -19.3122166581        0.3252043700  HOAC      158             0.0000000000
     11292       615  HOAC      H             -30.9859305500      -18.3758290780        0.6091720315  HOAC      158             0.0000000000
     11293       615  HOAC      LPO11         -31.7217370839      -18.3587007065       -1.3987233521  HOAC      158             0.0000000000
     11294       615  HOAC      LPO12         -31.8028044698      -18.7424242808       -1.8526778061  HOAC      158             0.0000000000
     11295       615  HOAC      LPO21         -31.1475480898      -19.3569685962        0.5724139599  HOAC      158             0.0000000000
     11296       615  HOAC      LPO22         -30.5441522317      -19.2303420312        0.3547203278  HOAC      158             0.0000000000
     11297       616  HOAC      C1             -5.2203621350      -13.7449816461      -21.8458358253  HOAC      159             0.0000000000
     11298       616  HOAC      DC1            -5.2247089276      -13.7441556100      -21.8351335869  HOAC      159             0.0000000000
     11299       616  HOAC      C2             -6.3261558642      -13.7513506460      -20.8444452024  HOAC      159             0.0000000000
     11300       616  HOAC      DC2            -6.3158598238      -13.7483350953      -20.8489599390  HOAC      159             0.0000000000
     11301       616  HOAC      H1             -7.2130193700      -14.2783578115      -21.2568255730  HOAC      159             0.0000000000
     11302       616  HOAC      H2             -6.6177512269      -12.7142680288      -20.5728705544  HOAC      159             0.0000000000
     11303       616  HOAC      H3             -5.9798357764      -14.2836872654      -19.9328525731  HOAC      159             0.0000000000
     11304       616  HOAC      O1             -4.4862134827      -12.8036269592      -22.0933723133  HOAC      159             0.0000000000
     11305       616  HOAC      DO1            -4.4820409850      -12.8372031335      -22.1054977630  HOAC      159             0.0000000000
     11306       616  HOAC      O2             -5.0418651540      -14.9659535957      -22.4254886549  HOAC      159             0.0000000000
     11307       616  HOAC      DO2            -5.0438463555      -14.9655234188      -22.4182836103  HOAC      159             0.0000000000
     11308       616  HOAC      H              -4.3179052983      -14.8558534888      -23.0600917544  HOAC      159             0.0000000000
     11309       616  HOAC      LPO11          -4.3250638671      -12.9721584471      -22.2821259596  HOAC      159             0.0000000000
     11310       616  HOAC      LPO12          -4.6410575459      -12.6270102405      -21.9067447409  HOAC      159             0.0000000000
     11311       616  HOAC      LPO21          -4.8139048088      -15.1587553640      -22.2428371859  HOAC      159             0.0000000000
     11312       616  HOAC      LPO22          -5.2455713433      -15.0010619626      -22.7079265968  HOAC      159             0.0000000000
     11313       617  HOAC      C1            -12.8923818746      -26.8277580933      -33.6404410118  HOAC      160             0.0000000000
     11314       617  HOAC      DC1           -12.8968136063      -26.8372683483      -33.6363756019  HOAC      160             0.0000000000
     11315       617  HOAC      C2            -14.3538121285      -27.1736980634      -33.7181889751  HOAC      160             0.0000000000
     11316       617  HOAC      DC2           -14.3278147980      -27.1897049083      -33.7163519283  HOAC      160             0.0000000000
     11317       617  HOAC      H1            -14.5973576418      -27.7121204331      -34.6589907263  HOAC      160             0.0000000000
     11318       617  HOAC      H2            -14.9683332121      -26.2486934067      -33.6857664062  HOAC      160             0.0000000000
     11319       617  HOAC      H3            -14.6249478344      -27.8363462028      -32.8686574137  HOAC      160             0.0000000000
     11320       617  HOAC      O1            -12.4039490132      -25.7824011177      -33.2300180200  HOAC      160             0.0000000000
     11321       617  HOAC      DO1           -12.3906890994      -25.8066692832      -33.2423051486  HOAC      160             0.0000000000
     11322       617  HOAC      O2            -12.1266011233      -27.8728396017      -34.0876070604  HOAC      160             0.0000000000
     11323       617  HOAC      DO2           -12.1429173990      -27.8999303675      -34.0901510100  HOAC      160             0.0000000000
     11324       617  HOAC      H             -11.2275580346      -27.5144211738      -34.1347107247  HOAC      160             0.0000000000
     11325       617  HOAC      LPO11         -12.1269167249      -25.8859862105      -33.2802498799  HOAC      160             0.0000000000
     11326       617  HOAC      LPO12         -12.6768049510      -25.6698776884      -33.1762768338  HOAC      160             0.0000000000
     11327       617  HOAC      LPO21         -12.0081894949      -28.0644476649      -33.8197170897  HOAC      160             0.0000000000
     11328       617  HOAC      LPO22         -12.1147730663      -27.8782693375      -34.4373649981  HOAC      160             0.0000000000
     11329       618  HOAC      C1             16.4988366854       -4.0613236308       24.6947394656  HOAC      161             0.0000000000
     11330       618  HOAC      DC1            16.5015037199       -4.0715326865       24.6839316570  HOAC      161             0.0000000000
     11331       618  HOAC      C2             16.8822600619       -5.0182177587       23.6227938004  HOAC      161             0.0000000000
     11332       618  HOAC      DC2            16.8743383984       -5.0229755828       23.6230303940  HOAC      161             0.0000000000
     11333       618  HOAC      H1             17.9554881004       -4.8831153232       23.3693181379  HOAC      161             0.0000000000
     11334       618  HOAC      H2             16.2727981244       -4.8054953246       22.7185668856  HOAC      161             0.0000000000
     11335       618  HOAC      H3             16.7058566311       -6.0592708119       23.9683533031  HOAC      161             0.0000000000
     11336       618  HOAC      O1             15.6492467493       -3.1945460494       24.5770434794  HOAC      161             0.0000000000
     11337       618  HOAC      DO1            15.6640017407       -3.2079667413       24.5900396043  HOAC      161             0.0000000000
     11338       618  HOAC      O2             17.2155172176       -4.2649551190       25.8344319185  HOAC      161             0.0000000000
     11339       618  HOAC      DO2            17.2236522096       -4.2768715524       25.8196591417  HOAC      161             0.0000000000
     11340       618  HOAC      H              16.8760454326       -3.6344751252       26.4872832681  HOAC      161             0.0000000000
     11341       618  HOAC      LPO11          15.6962112394       -3.1028870588       24.8588110540  HOAC      161             0.0000000000
     11342       618  HOAC      LPO12          15.5949865676       -3.2787617529       24.2942652129  HOAC      161             0.0000000000
     11343       618  HOAC      LPO21          17.0642799439       -4.5085209670       26.0351879017  HOAC      161             0.0000000000
     11344       618  HOAC      LPO22          17.5041267396       -4.0669773271       25.8374876830  HOAC      161             0.0000000000
     11345       619  HOAC      C1             -6.2682800151      -28.9749481967      -16.7554621309  HOAC      162             0.0000000000
     11346       619  HOAC      DC1            -6.2737511265      -28.9778571895      -16.7517137751  HOAC      162             0.0000000000
     11347       619  HOAC      C2             -5.5279163313      -29.4826726646      -15.5757970168  HOAC      162             0.0000000000
     11348       619  HOAC      DC2            -5.5370995593      -29.4805130831      -15.5936216459  HOAC      162             0.0000000000
     11349       619  HOAC      H1             -4.5833048277      -29.9710268680      -15.8975737725  HOAC      162             0.0000000000
     11350       619  HOAC      H2             -6.1519605055      -30.2166246813      -15.0224397124  HOAC      162             0.0000000000
     11351       619  HOAC      H3             -5.2864853566      -28.6310998210      -14.9043390683  HOAC      162             0.0000000000
     11352       619  HOAC      O1             -7.3995179343      -29.3010228251      -17.0889364101  HOAC      162             0.0000000000
     11353       619  HOAC      DO1            -7.3904018400      -29.2768332567      -17.0995548960  HOAC      162             0.0000000000
     11354       619  HOAC      O2             -5.5357607236      -28.0483840669      -17.4361618324  HOAC      162             0.0000000000
     11355       619  HOAC      DO2            -5.5303063572      -28.0544180977      -17.4289640084  HOAC      162             0.0000000000
     11356       619  HOAC      H              -6.0914639030      -27.7277902306      -18.1623674290  HOAC      162             0.0000000000
     11357       619  HOAC      LPO11          -7.3913585008      -29.1113871582      -17.3212545916  HOAC      162             0.0000000000
     11358       619  HOAC      LPO12          -7.4173582829      -29.4934489756      -16.8594720369  HOAC      162             0.0000000000
     11359       619  HOAC      LPO21          -5.5819217084      -27.7288661471      -17.3009676669  HOAC      162             0.0000000000
     11360       619  HOAC      LPO22          -5.3467132410      -28.1997645938      -17.6888374851  HOAC      162             0.0000000000
     11361       620  HOAC      C1             -8.0581221325      -29.0038603597      -21.6030267997  HOAC      163             0.0000000000
     11362       620  HOAC      DC1            -8.0495647158      -28.9935307624      -21.5937970321  HOAC      163             0.0000000000
     11363       620  HOAC      C2             -7.4542226030      -29.2040104196      -20.2527801371  HOAC      163             0.0000000000
     11364       620  HOAC      DC2            -7.4654315883      -29.1807299583      -20.2563445057  HOAC      163             0.0000000000
     11365       620  HOAC      H1             -8.1608312021      -28.8363616796      -19.4782740419  HOAC      163             0.0000000000
     11366       620  HOAC      H2             -6.4903010848      -28.6590502985      -20.1622551434  HOAC      163             0.0000000000
     11367       620  HOAC      H3             -7.2756614469      -30.2880753240      -20.0877340921  HOAC      163             0.0000000000
     11368       620  HOAC      O1             -7.5812190044      -28.3557391636      -22.5247153848  HOAC      163             0.0000000000
     11369       620  HOAC      DO1            -7.5972019311      -28.3621367764      -22.5239107687  HOAC      163             0.0000000000
     11370       620  HOAC      O2             -9.2791644756      -29.5906457542      -21.6543814753  HOAC      163             0.0000000000
     11371       620  HOAC      DO2            -9.2605357089      -29.5861903094      -21.6384364784  HOAC      163             0.0000000000
     11372       620  HOAC      H              -9.6614048607      -29.4258998127      -22.5294312241  HOAC      163             0.0000000000
     11373       620  HOAC      LPO11          -7.8257663461      -28.4035097387      -22.6917919235  HOAC      163             0.0000000000
     11374       620  HOAC      LPO12          -7.3325901162      -28.3024216825      -22.3655270618  HOAC      163             0.0000000000
     11375       620  HOAC      LPO21          -9.2540618537      -29.9216391705      -21.7653464102  HOAC      163             0.0000000000
     11376       620  HOAC      LPO22          -9.5278591294      -29.3714273423      -21.5421573377  HOAC      163             0.0000000000
     11377       621  HOAC      C1             -7.4642973062        6.6397670998       -9.4771713644  HOAC      164             0.0000000000
     11378       621  HOAC      DC1            -7.4644029181        6.6457101474       -9.4821658720  HOAC      164             0.0000000000
     11379       621  HOAC      C2             -8.4681558013        7.7254539878       -9.4683172859  HOAC      164             0.0000000000
     11380       621  HOAC      DC2            -8.4557457474        7.7032121146       -9.4695635490  HOAC      164             0.0000000000
     11381       621  HOAC      H1             -7.9726104930        8.7148303193       -9.5677673876  HOAC      164             0.0000000000
     11382       621  HOAC      H2             -9.0337580234        7.7015048579       -8.5123666775  HOAC      164             0.0000000000
     11383       621  HOAC      H3             -9.1816990174        7.5866799030      -10.3085070463  HOAC      164             0.0000000000
     11384       621  HOAC      O1             -7.3684883772        5.7894758285       -8.6169841905  HOAC      164             0.0000000000
     11385       621  HOAC      DO1            -7.3469825662        5.8000013459       -8.6457771218  HOAC      164             0.0000000000
     11386       621  HOAC      O2             -6.6220551892        6.6594028637      -10.5552917595  HOAC      164             0.0000000000
     11387       621  HOAC      DO2            -6.6212933923        6.6660913091      -10.5640609978  HOAC      164             0.0000000000
     11388       621  HOAC      H              -6.0283490014        5.9094713201      -10.4001252598  HOAC      164             0.0000000000
     11389       621  HOAC      LPO11          -7.1374745171        5.6628462393       -8.7605026338  HOAC      164             0.0000000000
     11390       621  HOAC      LPO12          -7.5986753537        5.9087669373       -8.4660418597  HOAC      164             0.0000000000
     11391       621  HOAC      LPO21          -6.7525152039        6.4699918933      -10.8191168319  HOAC      164             0.0000000000
     11392       621  HOAC      LPO22          -6.3433460387        6.8615363192      -10.4923372076  HOAC      164             0.0000000000
     11393       622  HOAC      C1             11.6653635910       -3.9165873659      -31.2789404424  HOAC      165             0.0000000000
     11394       622  HOAC      DC1            11.6578225075       -3.9246531562      -31.2751379535  HOAC      165             0.0000000000
     11395       622  HOAC      C2             12.4822687142       -5.1123079541      -31.6206265756  HOAC      165             0.0000000000
     11396       622  HOAC      DC2            12.4726476975       -5.0896200391      -31.6037786073  HOAC      165             0.0000000000
     11397       622  HOAC      H1             12.9025931550       -4.9955382145      -32.6423962140  HOAC      165             0.0000000000
     11398       622  HOAC      H2             11.8614353344       -6.0332297761      -31.5925211779  HOAC      165             0.0000000000
     11399       622  HOAC      H3             13.3188740450       -5.2157609507      -30.8969484718  HOAC      165             0.0000000000
     11400       622  HOAC      O1             10.4880436650       -3.9178342332      -30.9449053347  HOAC      165             0.0000000000
     11401       622  HOAC      DO1            10.4996192599       -3.9023069248      -30.9360026508  HOAC      165             0.0000000000
     11402       622  HOAC      O2             12.4109325805       -2.7840205253      -31.3441765855  HOAC      165             0.0000000000
     11403       622  HOAC      DO2            12.4189098210       -2.7985312218      -31.3481968292  HOAC      165             0.0000000000
     11404       622  HOAC      H              11.8534730409       -2.0601514362      -31.0213555770  HOAC      165             0.0000000000
     11405       622  HOAC      LPO11          10.4928183406       -3.6201780617      -30.9077838315  HOAC      165             0.0000000000
     11406       622  HOAC      LPO12          10.4731951741       -4.2155010737      -30.9791686446  HOAC      165             0.0000000000
     11407       622  HOAC      LPO21          12.5911455963       -2.7359388523      -31.0480154441  HOAC      165             0.0000000000
     11408       622  HOAC      LPO22          12.3766401418       -2.6297775558      -31.6564795394  HOAC      165             0.0000000000
     11409       623  HOAC      C1             32.8893344797      -28.9386027980      -28.8831211313  HOAC      166             0.0000000000
     11410       623  HOAC      DC1            32.8932322205      -28.9521889352      -28.8887565881  HOAC      166             0.0000000000
     11411       623  HOAC      C2             32.5728154904      -28.3811200063      -30.2245354301  HOAC      166             0.0000000000
     11412       623  HOAC      DC2            32.5727198478      -28.3930815567      -30.2143059337  HOAC      166             0.0000000000
     11413       623  HOAC      H1             31.5705235183      -28.7324096597      -30.5506142294  HOAC      166             0.0000000000
     11414       623  HOAC      H2             33.3307819846      -28.7313695261      -30.9574290567  HOAC      166             0.0000000000
     11415       623  HOAC      H3             32.5778066553      -27.2708440268      -30.1847442523  HOAC      166             0.0000000000
     11416       623  HOAC      O1             33.8483278627      -29.6575540569      -28.6274334717  HOAC      166             0.0000000000
     11417       623  HOAC      DO1            33.8320164607      -29.6598608392      -28.5995113039  HOAC      166             0.0000000000
     11418       623  HOAC      O2             31.9253246229      -28.6355961929      -27.9603461104  HOAC      166             0.0000000000
     11419       623  HOAC      DO2            31.9210956125      -28.6417180334      -27.9709379927  HOAC      166             0.0000000000
     11420       623  HOAC      H              32.1929684426      -29.0349522494      -27.1190123324  HOAC      166             0.0000000000
     11421       623  HOAC      LPO11          33.7520524034      -29.6947181242      -28.3457423855  HOAC      166             0.0000000000
     11422       623  HOAC      LPO12          33.9527973332      -29.6265329879      -28.9069398634  HOAC      166             0.0000000000
     11423       623  HOAC      LPO21          31.9955619684      -28.3316743772      -27.8016065587  HOAC      166             0.0000000000
     11424       623  HOAC      LPO22          31.6733434976      -28.8785008797      -27.9586651445  HOAC      166             0.0000000000
     11425       624  HOAC      C1             -4.7823224615      -21.8738139786       26.5495757649  HOAC      167             0.0000000000
     11426       624  HOAC      DC1            -4.7921846902      -21.8905969854       26.5493986809  HOAC      167             0.0000000000
     11427       624  HOAC      C2             -5.5608108234      -20.7508849127       27.1299036098  HOAC      167             0.0000000000
     11428       624  HOAC      DC2            -5.5451055703      -20.7880431269       27.1068970452  HOAC      167             0.0000000000
     11429       624  HOAC      H1             -5.0060682848      -20.2721001727       27.9649765950  HOAC      167             0.0000000000
     11430       624  HOAC      H2             -6.5384541738      -21.1121252598       27.5146631340  HOAC      167             0.0000000000
     11431       624  HOAC      H3             -5.7467134863      -19.9822085897       26.3495845017  HOAC      167             0.0000000000
     11432       624  HOAC      O1             -5.1967786669      -23.0179336995       26.3998475552  HOAC      167             0.0000000000
     11433       624  HOAC      DO1            -5.1726470530      -23.0248252687       26.3990910599  HOAC      167             0.0000000000
     11434       624  HOAC      O2             -3.5439889879      -21.4906348418       26.1314373813  HOAC      167             0.0000000000
     11435       624  HOAC      DO2            -3.5627064245      -21.4915294085       26.1214768947  HOAC      167             0.0000000000
     11436       624  HOAC      H              -3.0746189326      -22.2763605732       25.8131798974  HOAC      167             0.0000000000
     11437       624  HOAC      LPO11          -4.9401561985      -23.0991709810       26.2673884566  HOAC      167             0.0000000000
     11438       624  HOAC      LPO12          -5.4569409171      -22.9464680996       26.5310278572  HOAC      167             0.0000000000
     11439       624  HOAC      LPO21          -3.5491666216      -21.3985051538       25.7938202717  HOAC      167             0.0000000000
     11440       624  HOAC      LPO22          -3.3141741050      -21.5017093278       26.3951843724  HOAC      167             0.0000000000
     11441       625  HOAC      C1            -25.3887860059        9.7440319990       15.8622268418  HOAC      168             0.0000000000
     11442       625  HOAC      DC1           -25.3851832890        9.7480615863       15.8798224866  HOAC      168             0.0000000000
     11443       625  HOAC      C2            -25.0096806192        8.3177442378       15.7349962017  HOAC      168             0.0000000000
     11444       625  HOAC      DC2           -25.0405180737        8.3401385970       15.7481582122  HOAC      168             0.0000000000
     11445       625  HOAC      H1            -25.7800138449        7.6875520668       16.2287223920  HOAC      168             0.0000000000
     11446       625  HOAC      H2            -24.0157345072        8.1385702170       16.1979095815  HOAC      168             0.0000000000
     11447       625  HOAC      H3            -24.9246802500        8.0216911145       14.6675466781  HOAC      168             0.0000000000
     11448       625  HOAC      O1            -24.8527816569       10.5514614750       16.6122591953  HOAC      168             0.0000000000
     11449       625  HOAC      DO1           -24.8764825466       10.5540708687       16.6353155870  HOAC      168             0.0000000000
     11450       625  HOAC      O2            -26.5464839423       10.0055011868       15.1871775601  HOAC      168             0.0000000000
     11451       625  HOAC      DO2           -26.5432987509        9.9899673114       15.1883531739  HOAC      168             0.0000000000
     11452       625  HOAC      H             -26.7573944160       10.9417080396       15.3213211429  HOAC      168             0.0000000000
     11453       625  HOAC      LPO11         -25.0685749098       10.7527664317       16.5583186131  HOAC      168             0.0000000000
     11454       625  HOAC      LPO12         -24.6324083557       10.3570558391       16.6726086516  HOAC      168             0.0000000000
     11455       625  HOAC      LPO21         -26.4797260465       10.1011072234       14.8571732130  HOAC      168             0.0000000000
     11456       625  HOAC      LPO22         -26.8254224340        9.9468417088       15.3902843878  HOAC      168             0.0000000000
     11457       626  HOAC      C1              3.9196274435      -25.2616400500       25.2256235392  HOAC      169             0.0000000000
     11458       626  HOAC      DC1             3.8987581094      -25.2641214345       25.2203834571  HOAC      169             0.0000000000
     11459       626  HOAC      C2              3.6303271448      -26.4553609932       24.4143955838  HOAC      169             0.0000000000
     11460       626  HOAC      DC2             3.6129454824      -26.4426009486       24.4181778992  HOAC      169             0.0000000000
     11461       626  HOAC      H1              4.4448616789      -26.5865887134       23.6703298752  HOAC      169             0.0000000000
     11462       626  HOAC      H2              2.6615169669      -26.3326850262       23.8846046379  HOAC      169             0.0000000000
     11463       626  HOAC      H3              3.5876221272      -27.3388801724       25.0866240742  HOAC      169             0.0000000000
     11464       626  HOAC      O1              3.1492653899      -24.3222654713       25.2777919995  HOAC      169             0.0000000000
     11465       626  HOAC      DO1             3.1545692313      -24.3251972133       25.2843165022  HOAC      169             0.0000000000
     11466       626  HOAC      O2              5.0643158467      -25.3795257920       25.9537149973  HOAC      169             0.0000000000
     11467       626  HOAC      DO2             5.0362891675      -25.4029441300       25.9474911190  HOAC      169             0.0000000000
     11468       626  HOAC      H               5.3046231103      -24.5353498826       26.3643004977  HOAC      169             0.0000000000
     11469       626  HOAC      LPO11           3.3204590671      -24.1865126494       25.4833738476  HOAC      169             0.0000000000
     11470       626  HOAC      LPO12           2.9714377117      -24.4499288345       25.0726594021  HOAC      169             0.0000000000
     11471       626  HOAC      LPO21           4.9935550495      -25.4741882854       26.2831568312  HOAC      169             0.0000000000
     11472       626  HOAC      LPO22           5.3456548103      -25.3175175704       25.7549604553  HOAC      169             0.0000000000
     11473       627  HOAC      C1              5.6876648247       25.8749766801       -9.2534013039  HOAC      170             0.0000000000
     11474       627  HOAC      DC1             5.6958408241       25.8709060784       -9.2511171396  HOAC      170             0.0000000000
     11475       627  HOAC      C2              4.3312236902       25.2874771584       -9.2703894548  HOAC      170             0.0000000000
     11476       627  HOAC      DC2             4.3638691752       25.2992200350       -9.2811795390  HOAC      170             0.0000000000
     11477       627  HOAC      H1              3.5873435407       26.0122782166       -8.8758938926  HOAC      170             0.0000000000
     11478       627  HOAC      H2              4.2915470215       24.3627957262       -8.6558074743  HOAC      170             0.0000000000
     11479       627  HOAC      H3              4.0725176743       25.0400822121      -10.3221441495  HOAC      170             0.0000000000
     11480       627  HOAC      O1              6.6719501095       25.4072446319       -8.6934728540  HOAC      170             0.0000000000
     11481       627  HOAC      DO1             6.6761619444       25.4209469867       -8.7058078447  HOAC      170             0.0000000000
     11482       627  HOAC      O2              5.7272642989       27.0153381481      -10.0032077701  HOAC      170             0.0000000000
     11483       627  HOAC      DO2             5.7105676281       27.0160459627      -10.0030687554  HOAC      170             0.0000000000
     11484       627  HOAC      H               6.6426795294       27.3329824016       -9.9943712564  HOAC      170             0.0000000000
     11485       627  HOAC      LPO11           6.8438065801       25.6296696293       -8.7983178540  HOAC      170             0.0000000000
     11486       627  HOAC      LPO12           6.5085060639       25.1808220528       -8.5838422942  HOAC      170             0.0000000000
     11487       627  HOAC      LPO21           5.7895166548       26.9414769366      -10.3396140209  HOAC      170             0.0000000000
     11488       627  HOAC      LPO22           5.6610688825       27.2968042124       -9.8059895623  HOAC      170             0.0000000000
     11489       628  HOAC      C1             13.9696471426       18.0717348960       16.6114648337  HOAC      171             0.0000000000
     11490       628  HOAC      DC1            13.9732819478       18.0765893932       16.6039705769  HOAC      171             0.0000000000
     11491       628  HOAC      C2             13.0201257160       18.5104263098       17.6598078355  HOAC      171             0.0000000000
     11492       628  HOAC      DC2            13.0400745503       18.4895670353       17.6347729242  HOAC      171             0.0000000000
     11493       628  HOAC      H1             12.1705570112       17.7982945983       17.7334450627  HOAC      171             0.0000000000
     11494       628  HOAC      H2             12.6136433601       19.5162890757       17.4203643288  HOAC      171             0.0000000000
     11495       628  HOAC      H3             13.5445982199       18.5621590562       18.6378534971  HOAC      171             0.0000000000
     11496       628  HOAC      O1             14.3289159348       18.7371246715       15.6517629423  HOAC      171             0.0000000000
     11497       628  HOAC      DO1            14.3539741675       18.7123199474       15.6491240669  HOAC      171             0.0000000000
     11498       628  HOAC      O2             14.4465234489       16.8102005953       16.8222739164  HOAC      171             0.0000000000
     11499       628  HOAC      DO2            14.4377982258       16.8055778408       16.8226660122  HOAC      171             0.0000000000
     11500       628  HOAC      H              15.0803951876       16.6457622084       16.1080417163  HOAC      171             0.0000000000
     11501       628  HOAC      LPO11          14.5072607029       18.5149387050       15.5578132751  HOAC      171             0.0000000000
     11502       628  HOAC      LPO12          14.1536502303       18.9650132692       15.7374876171  HOAC      171             0.0000000000
     11503       628  HOAC      LPO21          14.7271194126       16.8161123771       17.0313933942  HOAC      171             0.0000000000
     11504       628  HOAC      LPO22          14.2465339277       16.5725429965       16.6609572801  HOAC      171             0.0000000000
     11505       629  HOAC      C1            -35.6512026698      -37.1986065139      -11.3277236632  HOAC      172             0.0000000000
     11506       629  HOAC      DC1           -35.6543659513      -37.2042762653      -11.3208362219  HOAC      172             0.0000000000
     11507       629  HOAC      C2            -34.4533190812      -36.9627581144      -10.4704417590  HOAC      172             0.0000000000
     11508       629  HOAC      DC2           -34.4742603728      -36.9766218499      -10.4841963260  HOAC      172             0.0000000000
     11509       629  HOAC      H1            -33.6070968161      -37.5967081825      -10.8115226750  HOAC      172             0.0000000000
     11510       629  HOAC      H2            -34.6641352768      -37.2095524282       -9.4079117129  HOAC      172             0.0000000000
     11511       629  HOAC      H3            -34.1431855912      -35.8981663945      -10.5395987416  HOAC      172             0.0000000000
     11512       629  HOAC      O1            -36.6832395440      -37.7609831073      -10.9821977117  HOAC      172             0.0000000000
     11513       629  HOAC      DO1           -36.6793184662      -37.7555846691      -11.0033399376  HOAC      172             0.0000000000
     11514       629  HOAC      O2            -35.4556615751      -36.7354897879      -12.5923681061  HOAC      172             0.0000000000
     11515       629  HOAC      DO2           -35.4453978900      -36.7326755326      -12.5832069970  HOAC      172             0.0000000000
     11516       629  HOAC      H             -36.2480790735      -36.9430669116      -13.1100043161  HOAC      172             0.0000000000
     11517       629  HOAC      LPO11         -36.7983254412      -37.7303663701      -11.2575481278  HOAC      172             0.0000000000
     11518       629  HOAC      LPO12         -36.5769752349      -37.7964068963      -10.7038938278  HOAC      172             0.0000000000
     11519       629  HOAC      LPO21         -35.5633399989      -36.4037776462      -12.6219047285  HOAC      172             0.0000000000
     11520       629  HOAC      LPO22         -35.3017719948      -36.9784062587      -12.7918915015  HOAC      172             0.0000000000
     11521       630  HOAC      C1              7.6623701364      -13.8456560310       21.3006649074  HOAC      173             0.0000000000
     11522       630  HOAC      DC1             7.6542946753      -13.8499641462       21.2895131012  HOAC      173             0.0000000000
     11523       630  HOAC      C2              7.2081278702      -15.2699259325       21.2616581024  HOAC      173             0.0000000000
     11524       630  HOAC      DC2             7.2005406891      -15.2607781773       21.2539923587  HOAC      173             0.0000000000
     11525       630  HOAC      H1              8.0648192548      -15.9237928881       20.9917342676  HOAC      173             0.0000000000
     11526       630  HOAC      H2              6.3957177060      -15.4013137724       20.5153016455  HOAC      173             0.0000000000
     11527       630  HOAC      H3              6.8508700219      -15.5651796092       22.2713675150  HOAC      173             0.0000000000
     11528       630  HOAC      O1              7.2636576204      -12.9346799324       20.5876460755  HOAC      173             0.0000000000
     11529       630  HOAC      DO1             7.2809382955      -12.9302471361       20.6031400509  HOAC      173             0.0000000000
     11530       630  HOAC      O2              8.6439338803      -13.6907642359       22.2135129783  HOAC      173             0.0000000000
     11531       630  HOAC      DO2             8.6386934133      -13.7043771719       22.1926712594  HOAC      173             0.0000000000
     11532       630  HOAC      H               8.8524590683      -12.7510513982       22.3249491870  HOAC      173             0.0000000000
     11533       630  HOAC      LPO11           7.4586900763      -12.7442355452       20.7129188840  HOAC      173             0.0000000000
     11534       630  HOAC      LPO12           7.0652130783      -13.1173284041       20.4562714225  HOAC      173             0.0000000000
     11535       630  HOAC      LPO21           8.5110096157      -13.6605130126       22.5358730307  HOAC      173             0.0000000000
     11536       630  HOAC      LPO22           8.9589512439      -13.7036629412       22.0615337561  HOAC      173             0.0000000000
     11537       631  HOAC      C1            -12.7009847055       22.0223293239       -8.0316326339  HOAC      174             0.0000000000
     11538       631  HOAC      DC1           -12.7157780481       22.0105558492       -8.0304496406  HOAC      174             0.0000000000
     11539       631  HOAC      C2            -13.8021622853       21.7408549340       -7.0659973714  HOAC      174             0.0000000000
     11540       631  HOAC      DC2           -13.8024860313       21.7402762819       -7.0659227922  HOAC      174             0.0000000000
     11541       631  HOAC      H1            -13.5093272259       20.8859470998       -6.4196992798  HOAC      174             0.0000000000
     11542       631  HOAC      H2            -14.7384454526       21.4924830213       -7.6100619115  HOAC      174             0.0000000000
     11543       631  HOAC      H3            -13.9827357273       22.6358681706       -6.4330159031  HOAC      174             0.0000000000
     11544       631  HOAC      O1            -12.7760797862       21.8827730929       -9.2442242184  HOAC      174             0.0000000000
     11545       631  HOAC      DO1           -12.7586790453       21.8856584610       -9.2348790906  HOAC      174             0.0000000000
     11546       631  HOAC      O2            -11.5545150941       22.3588869784       -7.3805914866  HOAC      174             0.0000000000
     11547       631  HOAC      DO2           -11.5687158457       22.3446800455       -7.3664468628  HOAC      174             0.0000000000
     11548       631  HOAC      H             -10.9163000310       22.6225732800       -8.0603797386  HOAC      174             0.0000000000
     11549       631  HOAC      LPO11         -12.4850050874       21.9485179514       -9.2750970754  HOAC      174             0.0000000000
     11550       631  HOAC      LPO12         -13.0677975069       21.8158332465       -9.2237345046  HOAC      174             0.0000000000
     11551       631  HOAC      LPO21         -11.5554388482       22.6978019422       -7.2932084564  HOAC      174             0.0000000000
     11552       631  HOAC      LPO22         -11.3481607706       22.0793398207       -7.3385049115  HOAC      174             0.0000000000
     11553       632  HOAC      C1              2.9372241669      -18.8047660759       10.3520935332  HOAC      175             0.0000000000
     11554       632  HOAC      DC1             2.9388987469      -18.8060779584       10.3597102160  HOAC      175             0.0000000000
     11555       632  HOAC      C2              1.8021601790      -19.7163982280       10.6676171427  HOAC      175             0.0000000000
     11556       632  HOAC      DC2             1.8157005499      -19.6985991168       10.6705509461  HOAC      175             0.0000000000
     11557       632  HOAC      H1              0.8720318170      -19.1292282006       10.8238656292  HOAC      175             0.0000000000
     11558       632  HOAC      H2              2.0218710449      -20.2921312355       11.5920519103  HOAC      175             0.0000000000
     11559       632  HOAC      H3              1.6444591629      -20.4268648024        9.8281597955  HOAC      175             0.0000000000
     11560       632  HOAC      O1              3.9681071526      -18.7114237170       11.0048974747  HOAC      175             0.0000000000
     11561       632  HOAC      DO1             3.9614427228      -18.6923222917       10.9923123012  HOAC      175             0.0000000000
     11562       632  HOAC      O2              2.6902087192      -18.0362425430        9.2536988964  HOAC      175             0.0000000000
     11563       632  HOAC      DO2             2.6820266400      -18.0413451815        9.2563617618  HOAC      175             0.0000000000
     11564       632  HOAC      H               3.4630915636      -17.4682930278        9.1156899950  HOAC      175             0.0000000000
     11565       632  HOAC      LPO11           4.0698609814      -18.4955168295       10.8231548704  HOAC      175             0.0000000000
     11566       632  HOAC      LPO12           3.8751743706      -18.9265318938       11.1922259838  HOAC      175             0.0000000000
     11567       632  HOAC      LPO21           2.7968527812      -18.1974966886        8.9619384732  HOAC      175             0.0000000000
     11568       632  HOAC      LPO22           2.5281162244      -17.7391848505        9.3430451356  HOAC      175             0.0000000000
     11569       633  HOAC      C1            -20.1663279859       30.2353257313      -11.0732315664  HOAC      176             0.0000000000
     11570       633  HOAC      DC1           -20.1757046536       30.2324443539      -11.0876934444  HOAC      176             0.0000000000
     11571       633  HOAC      C2            -20.7229454287       28.8998535624      -11.3653490880  HOAC      176             0.0000000000
     11572       633  HOAC      DC2           -20.7425370692       28.9158121821      -11.3727795867  HOAC      176             0.0000000000
     11573       633  HOAC      H1            -20.8730196143       28.3602038595      -10.4058820813  HOAC      176             0.0000000000
     11574       633  HOAC      H2            -20.0077989915       28.3408405496      -12.0059667795  HOAC      176             0.0000000000
     11575       633  HOAC      H3            -21.6888067211       28.9982096351      -11.9054963340  HOAC      176             0.0000000000
     11576       633  HOAC      O1            -19.1576030503       30.7017296684      -11.5779123128  HOAC      176             0.0000000000
     11577       633  HOAC      DO1           -19.1749127250       30.7234507428      -11.5576469327  HOAC      176             0.0000000000
     11578       633  HOAC      O2            -21.0012156155       30.9466285096      -10.2568622077  HOAC      176             0.0000000000
     11579       633  HOAC      DO2           -21.0265938403       30.9348916997      -10.2690600804  HOAC      176             0.0000000000
     11580       633  HOAC      H             -20.5636294829       31.7983936179      -10.1086205911  HOAC      176             0.0000000000
     11581       633  HOAC      LPO11         -19.2086398912       30.9670025812      -11.4474304266  HOAC      176             0.0000000000
     11582       633  HOAC      LPO12         -19.0979121277       30.4404581415      -11.7127239703  HOAC      176             0.0000000000
     11583       633  HOAC      LPO21         -21.2324287562       31.1305821814      -10.4444829160  HOAC      176             0.0000000000
     11584       633  HOAC      LPO22         -20.9298185229       30.8838419150       -9.9200235242  HOAC      176             0.0000000000
     11585       634  HOAC      C1             -9.5117892953       32.4050105012       -4.8014120227  HOAC      177             0.0000000000
     11586       634  HOAC      DC1            -9.5191438337       32.4109495225       -4.7947596510  HOAC      177             0.0000000000
     11587       634  HOAC      C2            -10.4725043189       31.2719485213       -4.8554904550  HOAC      177             0.0000000000
     11588       634  HOAC      DC2           -10.4562597343       31.2895089053       -4.8475161080  HOAC      177             0.0000000000
     11589       634  HOAC      H1            -10.6138909675       30.9640618961       -5.9135720409  HOAC      177             0.0000000000
     11590       634  HOAC      H2            -11.4563698757       31.5693858918       -4.4337552594  HOAC      177             0.0000000000
     11591       634  HOAC      H3            -10.0706689822       30.4082510562       -4.2837597044  HOAC      177             0.0000000000
     11592       634  HOAC      O1             -9.7303742885       33.5199448674       -4.3412859250  HOAC      177             0.0000000000
     11593       634  HOAC      DO1            -9.7065274869       33.5189320479       -4.3478083296  HOAC      177             0.0000000000
     11594       634  HOAC      O2             -8.3083867653       32.0411085922       -5.3235625797  HOAC      177             0.0000000000
     11595       634  HOAC      DO2            -8.3204167558       32.0362634724       -5.3186222962  HOAC      177             0.0000000000
     11596       634  HOAC      H              -7.7182604804       32.8086223194       -5.2831318014  HOAC      177             0.0000000000
     11597       634  HOAC      LPO11          -9.4498662027       33.6063183576       -4.4033732342  HOAC      177             0.0000000000
     11598       634  HOAC      LPO12         -10.0127496523       33.4430957837       -4.2752679558  HOAC      177             0.0000000000
     11599       634  HOAC      LPO21          -8.0993693328       31.9094543489       -5.0756132438  HOAC      177             0.0000000000
     11600       634  HOAC      LPO22          -8.3006739320       32.0955034951       -5.6692238398  HOAC      177             0.0000000000
     11601       635  HOAC      C1             25.4998340314       15.5633975054      -32.4244256217  HOAC      178             0.0000000000
     11602       635  HOAC      DC1            25.4884176334       15.5581784914      -32.4113808853  HOAC      178             0.0000000000
     11603       635  HOAC      C2             24.3547492798       15.6281099245      -33.3704910818  HOAC      178             0.0000000000
     11604       635  HOAC      DC2            24.3728993670       15.6366459135      -33.3526776399  HOAC      178             0.0000000000
     11605       635  HOAC      H1             24.0804083967       16.6924472440      -33.5324915520  HOAC      178             0.0000000000
     11606       635  HOAC      H2             23.4759364731       15.0868858309      -32.9592909702  HOAC      178             0.0000000000
     11607       635  HOAC      H3             24.6341163910       15.1688562820      -34.3427879032  HOAC      178             0.0000000000
     11608       635  HOAC      O1             25.4281911277       15.1763741593      -31.2675457163  HOAC      178             0.0000000000
     11609       635  HOAC      DO1            25.4390671521       15.1830245445      -31.2649444501  HOAC      178             0.0000000000
     11610       635  HOAC      O2             26.6412644953       16.0581565025      -32.9746197018  HOAC      178             0.0000000000
     11611       635  HOAC      DO2            26.6189801647       16.0553117339      -32.9829853782  HOAC      178             0.0000000000
     11612       635  HOAC      H              27.3402905220       16.0226316175      -32.3044991182  HOAC      178             0.0000000000
     11613       635  HOAC      LPO11          25.7171201462       15.2429475729      -31.2218510458  HOAC      178             0.0000000000
     11614       635  HOAC      LPO12          25.1386481953       15.1064843104      -31.3033269866  HOAC      178             0.0000000000
     11615       635  HOAC      LPO21          26.8247329381       15.8043628475      -33.1309146511  HOAC      178             0.0000000000
     11616       635  HOAC      LPO22          26.6618182192       16.4045816238      -32.9291534532  HOAC      178             0.0000000000
     11617       636  HOAC      C1             34.4803248562      -25.3540218064      -28.0009183025  HOAC      179             0.0000000000
     11618       636  HOAC      DC1            34.4850691338      -25.3548693060      -28.0134261082  HOAC      179             0.0000000000
     11619       636  HOAC      C2             34.7735330630      -24.9319653953      -29.3981333490  HOAC      179             0.0000000000
     11620       636  HOAC      DC2            34.7764154779      -24.9443414034      -29.3934256360  HOAC      179             0.0000000000
     11621       636  HOAC      H1             35.3988888042      -25.7072783119      -29.8902116750  HOAC      179             0.0000000000
     11622       636  HOAC      H2             35.3254127162      -23.9677352914      -29.3949466182  HOAC      179             0.0000000000
     11623       636  HOAC      H3             33.8212750591      -24.8089250584      -29.9570490589  HOAC      179             0.0000000000
     11624       636  HOAC      O1             34.8222509141      -24.7632860241      -26.9896934036  HOAC      179             0.0000000000
     11625       636  HOAC      DO1            34.8134924288      -24.7872504904      -27.0026951255  HOAC      179             0.0000000000
     11626       636  HOAC      O2             33.8370654450      -26.5520579422      -27.9863048872  HOAC      179             0.0000000000
     11627       636  HOAC      DO2            33.8473031326      -26.5631578705      -28.0083596953  HOAC      179             0.0000000000
     11628       636  HOAC      H              33.6031373489      -26.7205356417      -27.0611811600  HOAC      179             0.0000000000
     11629       636  HOAC      LPO11          34.7091927636      -24.9815145123      -26.8176638087  HOAC      179             0.0000000000
     11630       636  HOAC      LPO12          34.9382438104      -24.5399872603      -27.1530436718  HOAC      179             0.0000000000
     11631       636  HOAC      LPO21          33.4930707903      -26.5096775579      -28.0350037636  HOAC      179             0.0000000000
     11632       636  HOAC      LPO22          34.0642457492      -26.8152746558      -27.9462290708  HOAC      179             0.0000000000
     11633       637  HOAC      C1             -3.5695728209      -29.7949714670      -21.3941318688  HOAC      180             0.0000000000
     11634       637  HOAC      DC1            -3.5677825745      -29.7982243460      -21.3918335058  HOAC      180             0.0000000000
     11635       637  HOAC      C2             -2.6697486378      -30.9750053143      -21.4130352264  HOAC      180             0.0000000000
     11636       637  HOAC      DC2            -2.6637781867      -30.9571439756      -21.4091060108  HOAC      180             0.0000000000
     11637       637  HOAC      H1             -1.8193034302      -30.7933611646      -22.1044608213  HOAC      180             0.0000000000
     11638       637  HOAC      H2             -3.2313183528      -31.8718040089      -21.7517276489  HOAC      180             0.0000000000
     11639       637  HOAC      H3             -2.2921543644      -31.1536938840      -20.3835625654  HOAC      180             0.0000000000
     11640       637  HOAC      O1             -4.7772847330      -29.8215254323      -21.5603812285  HOAC      180             0.0000000000
     11641       637  HOAC      DO1            -4.7623704038      -29.7990671679      -21.5517399358  HOAC      180             0.0000000000
     11642       637  HOAC      O2             -2.8898134182      -28.6457635520      -21.0984867099  HOAC      180             0.0000000000
     11643       637  HOAC      DO2            -2.8784980430      -28.6542705259      -21.0948318953  HOAC      180             0.0000000000
     11644       637  HOAC      H              -3.5430480659      -27.9301880095      -21.1125272941  HOAC      180             0.0000000000
     11645       637  HOAC      LPO11          -4.7959572503      -29.5263271668      -21.5102881036  HOAC      180             0.0000000000
     11646       637  HOAC      LPO12          -4.7689833745      -30.1169517285      -21.6119020104  HOAC      180             0.0000000000
     11647       637  HOAC      LPO21          -2.8814610549      -28.5910321305      -20.7528934381  HOAC      180             0.0000000000
     11648       637  HOAC      LPO22          -2.7643497540      -28.4966086903      -21.3891956644  HOAC      180             0.0000000000
     11649       638  HOAC      C1             18.9906028945       28.6975797485        8.0384053271  HOAC      181             0.0000000000
     11650       638  HOAC      DC1            19.0152399963       28.6945671486        8.0411765259  HOAC      181             0.0000000000
     11651       638  HOAC      C2             19.0881847204       30.1790107854        8.0148929392  HOAC      181             0.0000000000
     11652       638  HOAC      DC2            19.1055630640       30.1473584044        8.0301955011  HOAC      181             0.0000000000
     11653       638  HOAC      H1             18.3477573931       30.5981878727        7.3004848312  HOAC      181             0.0000000000
     11654       638  HOAC      H2             20.1029347462       30.4959993781        7.6922141238  HOAC      181             0.0000000000
     11655       638  HOAC      H3             18.8632026474       30.5922160121        9.0213548150  HOAC      181             0.0000000000
     11656       638  HOAC      O1             19.9204128474       27.9383663437        7.7978688372  HOAC      181             0.0000000000
     11657       638  HOAC      DO1            19.9169059121       27.9325398016        7.8122102113  HOAC      181             0.0000000000
     11658       638  HOAC      O2             17.7848759748       28.2749722485        8.4973927939  HOAC      181             0.0000000000
     11659       638  HOAC      DO2            17.8099603864       28.2870368508        8.5069664517  HOAC      181             0.0000000000
     11660       638  HOAC      H              17.7227575431       27.3128277715        8.4005408151  HOAC      181             0.0000000000
     11661       638  HOAC      LPO11          19.7551432420       27.7016650294        7.8794681349  HOAC      181             0.0000000000
     11662       638  HOAC      LPO12          20.0936353901       28.1685738828        7.7142121604  HOAC      181             0.0000000000
     11663       638  HOAC      LPO21          17.7997279734       28.2032054983        8.8396338664  HOAC      181             0.0000000000
     11664       638  HOAC      LPO22          17.5454461339       28.2797671434        8.2421471078  HOAC      181             0.0000000000
     11665       639  HOAC      C1             12.3497639139       28.4044023411       15.5067168220  HOAC      182             0.0000000000
     11666       639  HOAC      DC1            12.3535539192       28.3967638650       15.5069326835  HOAC      182             0.0000000000
     11667       639  HOAC      C2             12.0678844066       29.6532234422       14.7485507872  HOAC      182             0.0000000000
     11668       639  HOAC      DC2            12.0553552548       29.6239934754       14.7683520821  HOAC      182             0.0000000000
     11669       639  HOAC      H1             11.2073823335       29.5052150573       14.0615641057  HOAC      182             0.0000000000
     11670       639  HOAC      H2             12.9591731088       29.9460262525       14.1534104982  HOAC      182             0.0000000000
     11671       639  HOAC      H3             11.8209721812       30.4827556649       15.4451364936  HOAC      182             0.0000000000
     11672       639  HOAC      O1             13.4233436010       27.8172400702       15.5713550892  HOAC      182             0.0000000000
     11673       639  HOAC      DO1            13.4069264284       27.8043742437       15.5784571214  HOAC      182             0.0000000000
     11674       639  HOAC      O2             11.2194305594       27.9402603244       16.1221879613  HOAC      182             0.0000000000
     11675       639  HOAC      DO2            11.2090569735       27.9457758603       16.1091322098  HOAC      182             0.0000000000
     11676       639  HOAC      H              11.4768013403       27.2029586710       16.6958669247  HOAC      182             0.0000000000
     11677       639  HOAC      LPO11          13.3015778620       27.6024312556       15.7417378288  HOAC      182             0.0000000000
     11678       639  HOAC      LPO12          13.5542837173       28.0270312338       15.4015247220  HOAC      182             0.0000000000
     11679       639  HOAC      LPO21          11.1617302779       28.1107620836       16.4223542945  HOAC      182             0.0000000000
     11680       639  HOAC      LPO22          11.0646207967       27.6929223199       15.9289061751  HOAC      182             0.0000000000
     11681       640  HOAC      C1            -22.2972502776       16.6354539951        5.2211732511  HOAC      183             0.0000000000
     11682       640  HOAC      DC1           -22.3101484713       16.6504669857        5.2078162726  HOAC      183             0.0000000000
     11683       640  HOAC      C2            -23.5384644328       16.6935739977        6.0343356889  HOAC      183             0.0000000000
     11684       640  HOAC      DC2           -23.5336624044       16.7128496535        6.0096404931  HOAC      183             0.0000000000
     11685       640  HOAC      H1            -24.2917472828       15.9888251429        5.6217644814  HOAC      183             0.0000000000
     11686       640  HOAC      H2            -23.9633872147       17.7196049721        6.0023658684  HOAC      183             0.0000000000
     11687       640  HOAC      H3            -23.3128601951       16.4104655998        7.0847038925  HOAC      183             0.0000000000
     11688       640  HOAC      O1            -21.8036614737       17.5905611408        4.6377446735  HOAC      183             0.0000000000
     11689       640  HOAC      DO1           -21.8021532268       17.5709157911        4.6294094454  HOAC      183             0.0000000000
     11690       640  HOAC      O2            -21.8677793992       15.3609336603        5.0550523288  HOAC      183             0.0000000000
     11691       640  HOAC      DO2           -21.8898414450       15.3840611026        5.0419110910  HOAC      183             0.0000000000
     11692       640  HOAC      H             -20.9965745412       15.3599126035        4.6308329836  HOAC      183             0.0000000000
     11693       640  HOAC      LPO11         -21.6086077962       17.4108328442        4.4975597873  HOAC      183             0.0000000000
     11694       640  HOAC      LPO12         -21.9944897299       17.7784657371        4.7729350552  HOAC      183             0.0000000000
     11695       640  HOAC      LPO21         -21.6899444967       15.2514898494        5.3359380702  HOAC      183             0.0000000000
     11696       640  HOAC      LPO22         -21.9760784524       15.2316568513        4.7483622218  HOAC      183             0.0000000000
     11697       641  HOAC      C1             -9.0176539118        9.0004119708       -5.9086696933  HOAC      184             0.0000000000
     11698       641  HOAC      DC1            -9.0279864068        9.0111793530       -5.9190182748  HOAC      184             0.0000000000
     11699       641  HOAC      C2             -9.6549735078        7.6793418870       -5.8234918650  HOAC      184             0.0000000000
     11700       641  HOAC      DC2            -9.6584676490        7.7267131731       -5.8245777119  HOAC      184             0.0000000000
     11701       641  HOAC      H1             -8.8988173627        6.8890466292       -6.0183823222  HOAC      184             0.0000000000
     11702       641  HOAC      H2            -10.4599304862        7.6010191461       -6.5852206954  HOAC      184             0.0000000000
     11703       641  HOAC      H3            -10.0862925502        7.5238866407       -4.8115044385  HOAC      184             0.0000000000
     11704       641  HOAC      O1             -9.1756946188        9.8029961045       -6.8187920763  HOAC      184             0.0000000000
     11705       641  HOAC      DO1            -9.1551791199        9.8188815457       -6.8003942764  HOAC      184             0.0000000000
     11706       641  HOAC      O2             -8.2674947156        9.2520048855       -4.8159179365  HOAC      184             0.0000000000
     11707       641  HOAC      DO2            -8.2859382902        9.2533307414       -4.8262958863  HOAC      184             0.0000000000
     11708       641  HOAC      H              -7.6863926464       10.0151120156       -4.9535729155  HOAC      184             0.0000000000
     11709       641  HOAC      LPO11          -9.0020050056       10.0037138851       -6.6789911793  HOAC      184             0.0000000000
     11710       641  HOAC      LPO12          -9.3507366181        9.6091461975       -6.9663810733  HOAC      184             0.0000000000
     11711       641  HOAC      LPO21          -8.4338134641        9.4692010580       -4.5975973086  HOAC      184             0.0000000000
     11712       641  HOAC      LPO22          -7.9671876269        9.0725574205       -4.8266071753  HOAC      184             0.0000000000
     11713       642  HOAC      C1            -24.8218134099      -33.2453982834      -10.5510505572  HOAC      185             0.0000000000
     11714       642  HOAC      DC1           -24.8260462591      -33.2391172485      -10.5376834309  HOAC      185             0.0000000000
     11715       642  HOAC      C2            -23.7768707790      -33.1358044156      -11.5914250312  HOAC      185             0.0000000000
     11716       642  HOAC      DC2           -23.8088700307      -33.1416004618      -11.5576231477  HOAC      185             0.0000000000
     11717       642  HOAC      H1            -23.4309133084      -34.1525068845      -11.8759430769  HOAC      185             0.0000000000
     11718       642  HOAC      H2            -22.9088542154      -32.5482011410      -11.2231986896  HOAC      185             0.0000000000
     11719       642  HOAC      H3            -24.1852057274      -32.6397258093      -12.4977856585  HOAC      185             0.0000000000
     11720       642  HOAC      O1            -24.7737320839      -32.7960515679       -9.4122202070  HOAC      185             0.0000000000
     11721       642  HOAC      DO1           -24.8138079969      -32.8091610403       -9.4114606627  HOAC      185             0.0000000000
     11722       642  HOAC      O2            -25.9173977074      -33.9244494081      -10.9965655896  HOAC      185             0.0000000000
     11723       642  HOAC      DO2           -25.9199328316      -33.9193976796      -10.9920468707  HOAC      185             0.0000000000
     11724       642  HOAC      H             -26.5117634623      -34.0205877063      -10.2373240094  HOAC      185             0.0000000000
     11725       642  HOAC      LPO11         -25.0480649061      -32.9021282802       -9.3531504709  HOAC      185             0.0000000000
     11726       642  HOAC      LPO12         -24.4989883299      -32.6861344701       -9.4615568187  HOAC      185             0.0000000000
     11727       642  HOAC      LPO21         -26.1595875583      -33.7037469092      -11.1195878767  HOAC      185             0.0000000000
     11728       642  HOAC      LPO22         -25.8712484561      -34.2700058870      -10.9655661309  HOAC      185             0.0000000000
     11729       643  HOAC      C1             -6.8566511562       -5.9902274877      -16.5006803743  HOAC      186             0.0000000000
     11730       643  HOAC      DC1            -6.8392913079       -5.9896979858      -16.5025587510  HOAC      186             0.0000000000
     11731       643  HOAC      C2             -5.5915590778       -5.1912629843      -16.5250011844  HOAC      186             0.0000000000
     11732       643  HOAC      DC2            -5.5940627155       -5.1930700683      -16.5179195982  HOAC      186             0.0000000000
     11733       643  HOAC      H1             -5.7538685674       -4.2687588345      -17.1224647612  HOAC      186             0.0000000000
     11734       643  HOAC      H2             -4.7751133029       -5.7879552957      -16.9851050681  HOAC      186             0.0000000000
     11735       643  HOAC      H3             -5.3027055851       -4.9087510596      -15.4900752584  HOAC      186             0.0000000000
     11736       643  HOAC      O1             -6.9803260569       -7.1311042995      -16.9200031540  HOAC      186             0.0000000000
     11737       643  HOAC      DO1            -6.9903182001       -7.1185087716      -16.9100925885  HOAC      186             0.0000000000
     11738       643  HOAC      O2             -7.8547480889       -5.2835932873      -15.9080561241  HOAC      186             0.0000000000
     11739       643  HOAC      DO2            -7.8183352071       -5.2778041743      -15.8971706029  HOAC      186             0.0000000000
     11740       643  HOAC      H              -8.6751574897       -5.7963757754      -15.9623104788  HOAC      186             0.0000000000
     11741       643  HOAC      LPO11          -7.2675295416       -7.1373548052      -16.8335445536  HOAC      186             0.0000000000
     11742       643  HOAC      LPO12          -6.6941825530       -7.1346319086      -17.0100556448  HOAC      186             0.0000000000
     11743       643  HOAC      LPO21          -7.8731330188       -5.3561778067      -15.5661592363  HOAC      186             0.0000000000
     11744       643  HOAC      LPO22          -8.0124172256       -5.0727592693      -16.1386845270  HOAC      186             0.0000000000
     11745       644  HOAC      C1             11.5530646785      -16.9015474597       21.5466125453  HOAC      187             0.0000000000
     11746       644  HOAC      DC1            11.5482537654      -16.9038041748       21.5340934962  HOAC      187             0.0000000000
     11747       644  HOAC      C2             12.2811109802      -17.0877187602       20.2468532809  HOAC      187             0.0000000000
     11748       644  HOAC      DC2            12.2692564386      -17.0861323828       20.2509236856  HOAC      187             0.0000000000
     11749       644  HOAC      H1             13.0315585970      -16.2815940213       20.1008660217  HOAC      187             0.0000000000
     11750       644  HOAC      H2             11.5591728213      -17.0815824129       19.4024075208  HOAC      187             0.0000000000
     11751       644  HOAC      H3             12.8089768420      -18.0650615227       20.2249499252  HOAC      187             0.0000000000
     11752       644  HOAC      O1             10.3435532524      -17.0183869929       21.7024951978  HOAC      187             0.0000000000
     11753       644  HOAC      DO1            10.3543259137      -17.0097982635       21.7113406451  HOAC      187             0.0000000000
     11754       644  HOAC      O2             12.4001113666      -16.5417631895       22.5471049620  HOAC      187             0.0000000000
     11755       644  HOAC      DO2            12.4016949079      -16.5450325728       22.5238586439  HOAC      187             0.0000000000
     11756       644  HOAC      H              11.8810191154      -16.4059115110       23.3539807617  HOAC      187             0.0000000000
     11757       644  HOAC      LPO11          10.3682234171      -16.9427509451       21.9917538559  HOAC      187             0.0000000000
     11758       644  HOAC      LPO12          10.3085448816      -17.0950217176       21.4145689348  HOAC      187             0.0000000000
     11759       644  HOAC      LPO21          12.5227065544      -16.8237186239       22.7143519440  HOAC      187             0.0000000000
     11760       644  HOAC      LPO22          12.4419318878      -16.1943958002       22.5564291688  HOAC      187             0.0000000000
     11761       645  HOAC      C1            -18.8877314621      -31.2445913006        0.1181741869  HOAC      188             0.0000000000
     11762       645  HOAC      DC1           -18.8862334413      -31.2367304676        0.1228889165  HOAC      188             0.0000000000
     11763       645  HOAC      C2            -18.5902277790      -29.8348506839        0.4704840227  HOAC      188             0.0000000000
     11764       645  HOAC      DC2           -18.6020031504      -29.8441034985        0.4697522647  HOAC      188             0.0000000000
     11765       645  HOAC      H1            -19.1594945604      -29.1697552756       -0.2135513786  HOAC      188             0.0000000000
     11766       645  HOAC      H2            -17.5029026880      -29.6332344032        0.3637318712  HOAC      188             0.0000000000
     11767       645  HOAC      H3            -18.8931956026      -29.6274507828        1.5190624798  HOAC      188             0.0000000000
     11768       645  HOAC      O1            -18.0795118326      -32.0762946086       -0.2632400183  HOAC      188             0.0000000000
     11769       645  HOAC      DO1           -18.1085757963      -32.0745071702       -0.2590877642  HOAC      188             0.0000000000
     11770       645  HOAC      O2            -20.2145113289      -31.5141783677        0.2789621271  HOAC      188             0.0000000000
     11771       645  HOAC      DO2           -20.2119353992      -31.5000737987        0.2866310884  HOAC      188             0.0000000000
     11772       645  HOAC      H             -20.3443110337      -32.4381088854        0.0173031215  HOAC      188             0.0000000000
     11773       645  HOAC      LPO11         -18.2950185773      -32.2839847024       -0.2837745715  HOAC      188             0.0000000000
     11774       645  HOAC      LPO12         -17.8570727338      -31.8757382956       -0.2459769747  HOAC      188             0.0000000000
     11775       645  HOAC      LPO21         -20.2802833394      -31.6285972230        0.6031262340  HOAC      188             0.0000000000
     11776       645  HOAC      LPO22         -20.3934797719      -31.4384522449       -0.0121321028  HOAC      188             0.0000000000
     11777       646  HOAC      C1              9.7743366288       -9.4426805732      -30.9060554516  HOAC      189             0.0000000000
     11778       646  HOAC      DC1             9.7850035306       -9.4476510968      -30.8819770591  HOAC      189             0.0000000000
     11779       646  HOAC      C2              9.7836320596       -8.3069545660      -29.9558223591  HOAC      189             0.0000000000
     11780       646  HOAC      DC2             9.7831306604       -8.3091431026      -29.9506194520  HOAC      189             0.0000000000
     11781       646  HOAC      H1             10.4673858358       -7.5117250475      -30.3224444922  HOAC      189             0.0000000000
     11782       646  HOAC      H2             10.0873829337       -8.6301263699      -28.9371877866  HOAC      189             0.0000000000
     11783       646  HOAC      H3              8.7380997455       -7.9320192625      -29.9311911110  HOAC      189             0.0000000000
     11784       646  HOAC      O1              9.9930798412      -10.6075254278      -30.6127408400  HOAC      189             0.0000000000
     11785       646  HOAC      DO1             9.9758909176      -10.6065229575      -30.6155059949  HOAC      189             0.0000000000
     11786       646  HOAC      O2              9.4057499746       -9.0088350351      -32.1266467097  HOAC      189             0.0000000000
     11787       646  HOAC      DO2             9.4156900931       -8.9899304629      -32.0873474276  HOAC      189             0.0000000000
     11788       646  HOAC      H               9.2547897158       -9.7621102395      -32.7171960020  HOAC      189             0.0000000000
     11789       646  HOAC      LPO11           9.9314398153      -10.6951492960      -30.8929596205  HOAC      189             0.0000000000
     11790       646  HOAC      LPO12          10.0565958955      -10.5298917299      -30.3300064774  HOAC      189             0.0000000000
     11791       646  HOAC      LPO21           9.0582428245       -8.9721294509      -32.1464325827  HOAC      189             0.0000000000
     11792       646  HOAC      LPO22           9.6856643133       -8.9543003252      -32.3295603080  HOAC      189             0.0000000000
     11793       647  HOAC      C1            -18.6670020284      -13.5516118490      -32.3774709087  HOAC      190             0.0000000000
     11794       647  HOAC      DC1           -18.6582330594      -13.5501065672      -32.3726893840  HOAC      190             0.0000000000
     11795       647  HOAC      C2            -18.8316501530      -12.2392963125      -33.0766709905  HOAC      190             0.0000000000
     11796       647  HOAC      DC2           -18.8244637369      -12.2648273503      -33.0549759270  HOAC      190             0.0000000000
     11797       647  HOAC      H1            -19.7870707512      -11.7695393245      -32.7591479928  HOAC      190             0.0000000000
     11798       647  HOAC      H2            -18.8411868014      -12.3564096353      -34.1814399810  HOAC      190             0.0000000000
     11799       647  HOAC      H3            -18.0023950551      -11.5516592805      -32.8049868084  HOAC      190             0.0000000000
     11800       647  HOAC      O1            -18.6078358460      -14.6791690924      -32.8511416878  HOAC      190             0.0000000000
     11801       647  HOAC      DO1           -18.6095336014      -14.6800782971      -32.8010714403  HOAC      190             0.0000000000
     11802       647  HOAC      O2            -18.5236846656      -13.3853789702      -31.0349662186  HOAC      190             0.0000000000
     11803       647  HOAC      DO2           -18.5046614943      -13.3839969406      -31.0278601907  HOAC      190             0.0000000000
     11804       647  HOAC      H             -18.4534697792      -14.2959030802      -30.7109651155  HOAC      190             0.0000000000
     11805       647  HOAC      LPO11         -18.5632188982      -14.7969033783      -32.5788404467  HOAC      190             0.0000000000
     11806       647  HOAC      LPO12         -18.6519468025      -14.5710777172      -33.1274937787  HOAC      190             0.0000000000
     11807       647  HOAC      LPO21         -18.1861299909      -13.3522934600      -30.9485822469  HOAC      190             0.0000000000
     11808       647  HOAC      LPO22         -18.8355039636      -13.3766295852      -30.8762457924  HOAC      190             0.0000000000
     11809       648  HOAC      C1             -3.8286234160      -18.7890091231        4.1905699904  HOAC      191             0.0000000000
     11810       648  HOAC      DC1            -3.8328233141      -18.7967519163        4.1961278338  HOAC      191             0.0000000000
     11811       648  HOAC      C2             -4.5113089841      -20.1041441083        4.3350083964  HOAC      191             0.0000000000
     11812       648  HOAC      DC2            -4.5117417102      -20.0980930516        4.3236346919  HOAC      191             0.0000000000
     11813       648  HOAC      H1             -5.5558624541      -20.0007238903        3.9709571530  HOAC      191             0.0000000000
     11814       648  HOAC      H2             -4.5240592028      -20.4140576772        5.4018317237  HOAC      191             0.0000000000
     11815       648  HOAC      H3             -3.9787300226      -20.8768842817        3.7404049350  HOAC      191             0.0000000000
     11816       648  HOAC      O1             -3.4973482645      -18.0560624678        5.1088540259  HOAC      191             0.0000000000
     11817       648  HOAC      DO1            -3.4987100375      -18.0544301928        5.0883257205  HOAC      191             0.0000000000
     11818       648  HOAC      O2             -3.6561033362      -18.4623078031        2.8805800147  HOAC      191             0.0000000000
     11819       648  HOAC      DO2            -3.6624470209      -18.4768530171        2.8865371836  HOAC      191             0.0000000000
     11820       648  HOAC      H              -3.2278797572      -17.5932530645        2.8624298711  HOAC      191             0.0000000000
     11821       648  HOAC      LPO11          -3.3975868530      -17.8498019233        4.9151938892  HOAC      191             0.0000000000
     11822       648  HOAC      LPO12          -3.5942680089      -18.2560358204        5.3103911723  HOAC      191             0.0000000000
     11823       648  HOAC      LPO21          -3.3494273813      -18.5817221999        2.7614579744  HOAC      191             0.0000000000
     11824       648  HOAC      LPO22          -3.9359591283      -18.2928192706        2.7562643961  HOAC      191             0.0000000000
     11825       649  HOAC      C1             14.3099395919        7.1337304164       24.3842095227  HOAC      192             0.0000000000
     11826       649  HOAC      DC1            14.3019394267        7.1324176834       24.3892775663  HOAC      192             0.0000000000
     11827       649  HOAC      C2             13.3576779027        6.0278410657       24.6615362471  HOAC      192             0.0000000000
     11828       649  HOAC      DC2            13.3641967393        6.0529799257       24.6653546946  HOAC      192             0.0000000000
     11829       649  HOAC      H1             12.4276809871        6.4179532152       25.1276255616  HOAC      192             0.0000000000
     11830       649  HOAC      H2             13.8186488371        5.2839034265       25.3459218015  HOAC      192             0.0000000000
     11831       649  HOAC      H3             13.1029181042        5.5221079439       23.7056845565  HOAC      192             0.0000000000
     11832       649  HOAC      O1             15.4559510626        7.1965836465       24.7983749078  HOAC      192             0.0000000000
     11833       649  HOAC      DO1            15.4382292030        7.2051512959       24.7830977413  HOAC      192             0.0000000000
     11834       649  HOAC      O2             13.7412010605        8.1119818696       23.6184603706  HOAC      192             0.0000000000
     11835       649  HOAC      DO2            13.7206038065        8.1061057358       23.6256611341  HOAC      192             0.0000000000
     11836       649  HOAC      H              14.4425941702        8.7563580533       23.4401683638  HOAC      192             0.0000000000
     11837       649  HOAC      LPO11          15.4948259211        7.4628867952       24.6658178318  HOAC      192             0.0000000000
     11838       649  HOAC      LPO12          15.4269111868        6.9308198994       24.9344863194  HOAC      192             0.0000000000
     11839       649  HOAC      LPO21          13.7662456299        8.0344811313       23.2780688238  HOAC      192             0.0000000000
     11840       649  HOAC      LPO22          13.6022355730        8.3627379990       23.8192337674  HOAC      192             0.0000000000
     11841       650  HOAC      C1              8.9339047792       -9.2163862175        6.8009104865  HOAC      193             0.0000000000
     11842       650  HOAC      DC1             8.9258874991       -9.2141227846        6.8010361510  HOAC      193             0.0000000000
     11843       650  HOAC      C2              8.9356506527      -10.2847325056        7.8343808751  HOAC      193             0.0000000000
     11844       650  HOAC      DC2             8.9301860122      -10.2706884981        7.8000711493  HOAC      193             0.0000000000
     11845       650  HOAC      H1              8.3876472483      -11.1820329114        7.4754028107  HOAC      193             0.0000000000
     11846       650  HOAC      H2              8.4527303019       -9.9203071855        8.7662087147  HOAC      193             0.0000000000
     11847       650  HOAC      H3              9.9835751106      -10.5780789238        8.0582630092  HOAC      193             0.0000000000
     11848       650  HOAC      O1              8.6023229048       -8.0446034722        6.9413620588  HOAC      193             0.0000000000
     11849       650  HOAC      DO1             8.6212854429       -8.0468652365        6.9005989396  HOAC      193             0.0000000000
     11850       650  HOAC      O2              9.3590083390       -9.7054141231        5.6014150625  HOAC      193             0.0000000000
     11851       650  HOAC      DO2             9.3519931769       -9.7026320324        5.6081896439  HOAC      193             0.0000000000
     11852       650  HOAC      H               9.2848535612       -8.9889195653        4.9532656835  HOAC      193             0.0000000000
     11853       650  HOAC      LPO11           8.6605952760       -7.9880212058        6.6525666678  HOAC      193             0.0000000000
     11854       650  HOAC      LPO12           8.5412181355       -8.0911762800        7.2313571980  HOAC      193             0.0000000000
     11855       650  HOAC      LPO21           9.7040763629       -9.6607315945        5.5635794904  HOAC      193             0.0000000000
     11856       650  HOAC      LPO22           9.0938376360       -9.8498000117        5.4243918623  HOAC      193             0.0000000000
     11857       651  HOAC      C1              3.0347084914       27.5182865898       30.5494355424  HOAC      194             0.0000000000
     11858       651  HOAC      DC1             3.0271303120       27.5162945059       30.5634467602  HOAC      194             0.0000000000
     11859       651  HOAC      C2              3.0503087013       28.3213958829       29.2997669016  HOAC      194             0.0000000000
     11860       651  HOAC      DC2             3.0205128189       28.3050885959       29.3310347091  HOAC      194             0.0000000000
     11861       651  HOAC      H1              3.3660379338       27.6967941212       28.4369177312  HOAC      194             0.0000000000
     11862       651  HOAC      H2              3.7659460430       29.1665534477       29.3886088233  HOAC      194             0.0000000000
     11863       651  HOAC      H3              2.0381780808       28.7304132520       29.0933270819  HOAC      194             0.0000000000
     11864       651  HOAC      O1              3.5924346366       27.7795902637       31.6101391338  HOAC      194             0.0000000000
     11865       651  HOAC      DO1             3.5720673939       27.7403910296       31.6240496597  HOAC      194             0.0000000000
     11866       651  HOAC      O2              2.1718226656       26.4551978248       30.4559667377  HOAC      194             0.0000000000
     11867       651  HOAC      DO2             2.1405816331       26.4688388354       30.4688229180  HOAC      194             0.0000000000
     11868       651  HOAC      H               2.3681647666       25.9002666868       31.2256824069  HOAC      194             0.0000000000
     11869       651  HOAC      LPO11           3.4564196844       27.5484873251       31.7446432771  HOAC      194             0.0000000000
     11870       651  HOAC      LPO12           3.7332110643       28.0129240302       31.4846905354  HOAC      194             0.0000000000
     11871       651  HOAC      LPO21           1.8694850808       26.5251830124       30.6178125234  HOAC      194             0.0000000000
     11872       651  HOAC      LPO22           2.3128068866       26.1961478430       30.2675083701  HOAC      194             0.0000000000
     11873       652  HOAC      C1             -1.3808232045       -8.5839569897       28.2877923059  HOAC      195             0.0000000000
     11874       652  HOAC      DC1            -1.3844084527       -8.5874876633       28.2737079147  HOAC      195             0.0000000000
     11875       652  HOAC      C2             -1.4836516099       -7.1094027177       28.1390455445  HOAC      195             0.0000000000
     11876       652  HOAC      DC2            -1.4704887036       -7.1349357107       28.1274111906  HOAC      195             0.0000000000
     11877       652  HOAC      H1             -1.9603384059       -6.6705126915       29.0415233802  HOAC      195             0.0000000000
     11878       652  HOAC      H2             -2.1040953832       -6.8586340616       27.2522053079  HOAC      195             0.0000000000
     11879       652  HOAC      H3             -0.4727569878       -6.6644845016       28.0187922882  HOAC      195             0.0000000000
     11880       652  HOAC      O1             -1.9244129974       -9.4109313457       27.5649224244  HOAC      195             0.0000000000
     11881       652  HOAC      DO1            -1.9033589385       -9.4247718376       27.5760743447  HOAC      195             0.0000000000
     11882       652  HOAC      O2             -0.5348414979       -8.9334621015       29.2949633525  HOAC      195             0.0000000000
     11883       652  HOAC      DO2            -0.5381182726       -8.9291677259       29.2827202087  HOAC      195             0.0000000000
     11884       652  HOAC      H              -0.4958199090       -9.9005165501       29.3423343260  HOAC      195             0.0000000000
     11885       652  HOAC      LPO11          -1.7905098014       -9.6354106963       27.7121601751  HOAC      195             0.0000000000
     11886       652  HOAC      LPO12          -2.0629608633       -9.1935180270       27.4115081561  HOAC      195             0.0000000000
     11887       652  HOAC      LPO21          -0.2059877329       -8.9602136745       29.1781748488  HOAC      195             0.0000000000
     11888       652  HOAC      LPO22          -0.7065799575       -8.9598092186       29.5987918089  HOAC      195             0.0000000000
     11889       653  HOAC      C1            -16.3757002606       -8.3504488032       30.5812210867  HOAC      196             0.0000000000
     11890       653  HOAC      DC1           -16.3745882509       -8.3688661118       30.5705887311  HOAC      196             0.0000000000
     11891       653  HOAC      C2            -16.8504955538       -7.1722215697       31.3176912427  HOAC      196             0.0000000000
     11892       653  HOAC      DC2           -16.8371939540       -7.2457930186       31.2830745972  HOAC      196             0.0000000000
     11893       653  HOAC      H1            -16.6379868480       -7.2567195219       32.4048992026  HOAC      196             0.0000000000
     11894       653  HOAC      H2            -17.9417330911       -7.0110499248       31.1852324237  HOAC      196             0.0000000000
     11895       653  HOAC      H3            -16.3239553193       -6.2793894708       30.9177822224  HOAC      196             0.0000000000
     11896       653  HOAC      O1            -17.0540712016       -9.0938981334       29.8778144390  HOAC      196             0.0000000000
     11897       653  HOAC      DO1           -17.0254770880       -9.1117023075       29.8723541223  HOAC      196             0.0000000000
     11898       653  HOAC      O2            -15.0302113834       -8.5601479256       30.7438579568  HOAC      196             0.0000000000
     11899       653  HOAC      DO2           -15.0185392438       -8.5638531493       30.7344212075  HOAC      196             0.0000000000
     11900       653  HOAC      H             -14.8387678741       -9.3830087683       30.2692945614  HOAC      196             0.0000000000
     11901       653  HOAC      LPO11         -16.8132656275       -9.2604688401       29.8124931165  HOAC      196             0.0000000000
     11902       653  HOAC      LPO12         -17.3006619773       -8.9336676221       29.9371370533  HOAC      196             0.0000000000
     11903       653  HOAC      LPO21         -14.8477966894       -8.4035742724       30.4894771978  HOAC      196             0.0000000000
     11904       653  HOAC      LPO22         -14.9668833956       -8.7453332257       31.0340233762  HOAC      196             0.0000000000
     11905       654  HOAC      C1            -14.8574248210       20.4866888872      -11.3797579399  HOAC      197             0.0000000000
     11906       654  HOAC      DC1           -14.8509548786       20.4822620629      -11.3818985738  HOAC      197             0.0000000000
     11907       654  HOAC      C2            -15.7211590639       21.4964437403      -10.7415215971  HOAC      197             0.0000000000
     11908       654  HOAC      DC2           -15.7038322254       21.4633379664      -10.7463368993  HOAC      197             0.0000000000
     11909       654  HOAC      H1            -15.6237509228       22.4781349612      -11.2525157277  HOAC      197             0.0000000000
     11910       654  HOAC      H2            -15.4569232665       21.6208613166       -9.6695977612  HOAC      197             0.0000000000
     11911       654  HOAC      H3            -16.7737826492       21.1435022652      -10.7831977836  HOAC      197             0.0000000000
     11912       654  HOAC      O1            -14.1143480531       19.7234502287      -10.7784236177  HOAC      197             0.0000000000
     11913       654  HOAC      DO1           -14.1164320570       19.7148380109      -10.8033635628  HOAC      197             0.0000000000
     11914       654  HOAC      O2            -15.0010977365       20.4357186900      -12.7419505635  HOAC      197             0.0000000000
     11915       654  HOAC      DO2           -15.0001845835       20.4408580359      -12.7515149331  HOAC      197             0.0000000000
     11916       654  HOAC      H             -14.4481070895       19.6920691550      -13.0250542786  HOAC      197             0.0000000000
     11917       654  HOAC      LPO11         -14.0346270715       19.5903678590      -11.0351990993  HOAC      197             0.0000000000
     11918       654  HOAC      LPO12         -14.1877079525       19.8499989210      -10.5165004350  HOAC      197             0.0000000000
     11919       654  HOAC      LPO21         -15.2721897636       20.2332228995      -12.8314188129  HOAC      197             0.0000000000
     11920       654  HOAC      LPO22         -14.7632445880       20.6378830849      -12.9002396573  HOAC      197             0.0000000000
     11921       655  HOAC      C1             34.6021163710        6.6401885203       -4.5589140446  HOAC      198             0.0000000000
     11922       655  HOAC      DC1            34.6032915864        6.6264715669       -4.5544582508  HOAC      198             0.0000000000
     11923       655  HOAC      C2             35.5453070777        7.2286010850       -3.5832051557  HOAC      198             0.0000000000
     11924       655  HOAC      DC2            35.5331264931        7.2206518707       -3.6024303662  HOAC      198             0.0000000000
     11925       655  HOAC      H1             36.4415648747        7.5955101813       -4.1276504498  HOAC      198             0.0000000000
     11926       655  HOAC      H2             35.8123462315        6.4702336641       -2.8164653396  HOAC      198             0.0000000000
     11927       655  HOAC      H3             35.0767145830        8.0909177272       -3.0624825015  HOAC      198             0.0000000000
     11928       655  HOAC      O1             34.1793411024        5.4906063227       -4.5702219609  HOAC      198             0.0000000000
     11929       655  HOAC      DO1            34.1605095965        5.5008217459       -4.5962994383  HOAC      198             0.0000000000
     11930       655  HOAC      O2             34.2434503015        7.5657066463       -5.4864269278  HOAC      198             0.0000000000
     11931       655  HOAC      DO2            34.2572317913        7.5635352662       -5.4773897700  HOAC      198             0.0000000000
     11932       655  HOAC      H              33.5807438560        7.1586293707       -6.0644141757  HOAC      198             0.0000000000
     11933       655  HOAC      LPO11          34.0165388050        5.5473154471       -4.8157407732  HOAC      198             0.0000000000
     11934       655  HOAC      LPO12          34.3385292034        5.4240697177       -4.3247998171  HOAC      198             0.0000000000
     11935       655  HOAC      LPO21          33.9764137554        7.7606242529       -5.3715417256  HOAC      198             0.0000000000
     11936       655  HOAC      LPO22          34.4517907056        7.5484049455       -5.7671312690  HOAC      198             0.0000000000
     11937       656  HOAC      C1             31.1540519863      -28.7636619359       -1.0645037452  HOAC      199             0.0000000000
     11938       656  HOAC      DC1            31.1550222696      -28.7670901919       -1.0826056415  HOAC      199             0.0000000000
     11939       656  HOAC      C2             32.2950562555      -28.9488762243       -0.1375032420  HOAC      199             0.0000000000
     11940       656  HOAC      DC2            32.2699045416      -28.9574064318       -0.1794704917  HOAC      199             0.0000000000
     11941       656  HOAC      H1             32.3522977219      -28.0985109762        0.5751841796  HOAC      199             0.0000000000
     11942       656  HOAC      H2             33.2556277202      -28.9995423344       -0.6934316609  HOAC      199             0.0000000000
     11943       656  HOAC      H3             32.1578242665      -29.8825534353        0.4487861464  HOAC      199             0.0000000000
     11944       656  HOAC      O1             31.2087735861      -28.7707996414       -2.2930165728  HOAC      199             0.0000000000
     11945       656  HOAC      DO1            31.1828926551      -28.7731147990       -2.2938956336  HOAC      199             0.0000000000
     11946       656  HOAC      O2             29.9763445872      -28.6274442727       -0.3940585992  HOAC      199             0.0000000000
     11947       656  HOAC      DO2            29.9762228428      -28.6234053819       -0.4073542157  HOAC      199             0.0000000000
     11948       656  HOAC      H              29.2782062301      -28.5500902570       -1.0615765320  HOAC      199             0.0000000000
     11949       656  HOAC      LPO11          30.9113247780      -28.7365226411       -2.3117059760  HOAC      199             0.0000000000
     11950       656  HOAC      LPO12          31.5066883535      -28.8051374199       -2.2847880647  HOAC      199             0.0000000000
     11951       656  HOAC      LPO21          29.8341932395      -28.9400807648       -0.3265944003  HOAC      199             0.0000000000
     11952       656  HOAC      LPO22          29.9081542345      -28.2904371332       -0.3286654517  HOAC      199             0.0000000000
     11953       657  HOAC      C1             -6.8907789703      -28.4384502516       -4.3516080524  HOAC      200             0.0000000000
     11954       657  HOAC      DC1            -6.8953983746      -28.4277426482       -4.3554989197  HOAC      200             0.0000000000
     11955       657  HOAC      C2             -6.5886565870      -27.3255579607       -5.2930308389  HOAC      200             0.0000000000
     11956       657  HOAC      DC2            -6.5683542949      -27.3246115556       -5.2766632541  HOAC      200             0.0000000000
     11957       657  HOAC      H1             -5.7635411151      -26.7063074789       -4.8806786833  HOAC      200             0.0000000000
     11958       657  HOAC      H2             -7.4865091329      -26.6901149141       -5.4492164358  HOAC      200             0.0000000000
     11959       657  HOAC      H3             -6.2836214603      -27.7621889819       -6.2680323378  HOAC      200             0.0000000000
     11960       657  HOAC      O1             -7.9229539699      -28.5773313163       -3.7162968571  HOAC      200             0.0000000000
     11961       657  HOAC      DO1            -7.9009210487      -28.5842524738       -3.7114195766  HOAC      200             0.0000000000
     11962       657  HOAC      O2             -5.8307812317      -29.2829040283       -4.2364525984  HOAC      200             0.0000000000
     11963       657  HOAC      DO2            -5.8351285042      -29.2701234605       -4.2529429460  HOAC      200             0.0000000000
     11964       657  HOAC      H              -6.0655534733      -29.9486881123       -3.5726946997  HOAC      200             0.0000000000
     11965       657  HOAC      LPO11          -7.8134533178      -28.8221491044       -3.5818578085  HOAC      200             0.0000000000
     11966       657  HOAC      LPO12          -8.0413142526      -28.3337056079       -3.8452827389  HOAC      200             0.0000000000
     11967       657  HOAC      LPO21          -5.8562888618      -29.5471332775       -4.4645584174  HOAC      200             0.0000000000
     11968       657  HOAC      LPO22          -5.6050123404      -29.1676992697       -3.9950892389  HOAC      200             0.0000000000
     11969       658  HOAC      C1             27.1081641112        7.9802248808      -16.5392750847  HOAC      201             0.0000000000
     11970       658  HOAC      DC1            27.1145530659        7.9876908354      -16.5471563826  HOAC      201             0.0000000000
     11971       658  HOAC      C2             25.9390277842        7.1527398776      -16.1579196835  HOAC      201             0.0000000000
     11972       658  HOAC      DC2            25.9566989006        7.1910999068      -16.1888875683  HOAC      201             0.0000000000
     11973       658  HOAC      H1             25.2784029569        7.7070303478      -15.4574499027  HOAC      201             0.0000000000
     11974       658  HOAC      H2             26.2731450948        6.2286194663      -15.6395683656  HOAC      201             0.0000000000
     11975       658  HOAC      H3             25.3627623880        6.8622718821      -17.0622799749  HOAC      201             0.0000000000
     11976       658  HOAC      O1             28.2912859519        7.6888360556      -16.4032430049  HOAC      201             0.0000000000
     11977       658  HOAC      DO1            28.2883794907        7.7156655390      -16.4227550334  HOAC      201             0.0000000000
     11978       658  HOAC      O2             26.7322731003        9.1580058663      -17.1425073262  HOAC      201             0.0000000000
     11979       658  HOAC      DO2            26.7199592643        9.1764449179      -17.1452905789  HOAC      201             0.0000000000
     11980       658  HOAC      H              27.5761407632        9.5621916716      -17.3944640733  HOAC      201             0.0000000000
     11981       658  HOAC      LPO11          28.3749465511        7.9444409856      -16.5361603623  HOAC      201             0.0000000000
     11982       658  HOAC      LPO12          28.2177301865        7.4307424253      -16.2691638216  HOAC      201             0.0000000000
     11983       658  HOAC      LPO21          26.6793212946        9.1113580938      -17.4853193616  HOAC      201             0.0000000000
     11984       658  HOAC      LPO22          26.7060210609        9.4159029727      -16.9073479910  HOAC      201             0.0000000000
     11985       659  HOAC      C1             33.0125278583      -21.8313437332      -27.5823288112  HOAC      202             0.0000000000
     11986       659  HOAC      DC1            33.0244310135      -21.8222365773      -27.5877219577  HOAC      202             0.0000000000
     11987       659  HOAC      C2             34.1107447781      -21.2822915099      -28.4353770177  HOAC      202             0.0000000000
     11988       659  HOAC      DC2            34.0996069021      -21.2814456356      -28.4368249719  HOAC      202             0.0000000000
     11989       659  HOAC      H1             34.3251426252      -21.9934226502      -29.2616016030  HOAC      202             0.0000000000
     11990       659  HOAC      H2             35.0326834172      -21.1314302210      -27.8340526316  HOAC      202             0.0000000000
     11991       659  HOAC      H3             33.7916712589      -20.3117435362      -28.8718970308  HOAC      202             0.0000000000
     11992       659  HOAC      O1             33.0831907634      -22.0770677143      -26.3917121593  HOAC      202             0.0000000000
     11993       659  HOAC      DO1            33.0666984762      -22.0642034116      -26.4102310803  HOAC      202             0.0000000000
     11994       659  HOAC      O2             31.8706682740      -21.9605061572      -28.3002428833  HOAC      202             0.0000000000
     11995       659  HOAC      DO2            31.8926451551      -21.9398402016      -28.3130383266  HOAC      202             0.0000000000
     11996       659  HOAC      H              31.2215982001      -22.4100831473      -27.7385048935  HOAC      202             0.0000000000
     11997       659  HOAC      LPO11          32.7927666439      -22.1519195759      -26.3845686578  HOAC      202             0.0000000000
     11998       659  HOAC      LPO12          33.3742225085      -22.0043288166      -26.3886176282  HOAC      202             0.0000000000
     11999       659  HOAC      LPO21          31.6646979296      -21.6806016343      -28.2586535177  HOAC      202             0.0000000000
     12000       659  HOAC      LPO22          31.8711726387      -22.2590054488      -28.4829938573  HOAC      202             0.0000000000
     12001       660  HOAC      C1             -0.0221632026       19.1855685122        8.3584617709  HOAC      203             0.0000000000
     12002       660  HOAC      DC1            -0.0262924786       19.1782173469        8.3540912712  HOAC      203             0.0000000000
     12003       660  HOAC      C2             -1.2363735352       18.7622810532        7.6150528188  HOAC      203             0.0000000000
     12004       660  HOAC      DC2            -1.2203326207       18.7544819706        7.6341702541  HOAC      203             0.0000000000
     12005       660  HOAC      H1             -1.9278612228       18.2226829427        8.2969616529  HOAC      203             0.0000000000
     12006       660  HOAC      H2             -0.9561119052       18.0911594517        6.7751896068  HOAC      203             0.0000000000
     12007       660  HOAC      H3             -1.7493310294       19.6526652158        7.1926647813  HOAC      203             0.0000000000
     12008       660  HOAC      O1              1.0964303299       18.7491549845        8.1490330677  HOAC      203             0.0000000000
     12009       660  HOAC      DO1             1.0815570951       18.7568812936        8.1621272492  HOAC      203             0.0000000000
     12010       660  HOAC      O2             -0.3001068654       20.0819327019        9.3480298815  HOAC      203             0.0000000000
     12011       660  HOAC      DO2            -0.3180224633       20.0751248325        9.3437011622  HOAC      203             0.0000000000
     12012       660  HOAC      H               0.5444548828       20.3045254309        9.7677070557  HOAC      203             0.0000000000
     12013       660  HOAC      LPO11           1.2081075516       18.9126035080        8.3744499667  HOAC      203             0.0000000000
     12014       660  HOAC      LPO12           0.9943633101       18.5819570900        7.9218168985  HOAC      203             0.0000000000
     12015       660  HOAC      LPO21          -0.2908237163       20.4097534441        9.2257703863  HOAC      203             0.0000000000
     12016       660  HOAC      LPO22          -0.3713668154       19.9177539141        9.6488077816  HOAC      203             0.0000000000
     12017       661  HOAC      C1              8.9978221320      -33.5590909448      -11.8606710792  HOAC      204             0.0000000000
     12018       661  HOAC      DC1             9.0010602360      -33.5398087793      -11.8792551349  HOAC      204             0.0000000000
     12019       661  HOAC      C2              8.8708751410      -33.8328646844      -13.3322084080  HOAC      204             0.0000000000
     12020       661  HOAC      DC2             8.8630427809      -33.8288595730      -13.3418570447  HOAC      204             0.0000000000
     12021       661  HOAC      H1              9.0766684489      -34.9047761070      -13.5395149855  HOAC      204             0.0000000000
     12022       661  HOAC      H2              9.5836356667      -33.2111700851      -13.9151228598  HOAC      204             0.0000000000
     12023       661  HOAC      H3              7.8337703969      -33.5902442173      -13.6482306553  HOAC      204             0.0000000000
     12024       661  HOAC      O1              9.7045648500      -32.6957399303      -11.3526616512  HOAC      204             0.0000000000
     12025       661  HOAC      DO1             9.6955157184      -32.6956694879      -11.3514057699  HOAC      204             0.0000000000
     12026       661  HOAC      O2              8.1042665341      -34.3154745962      -11.1737840755  HOAC      204             0.0000000000
     12027       661  HOAC      DO2             8.1043624566      -34.3057116020      -11.2058434260  HOAC      204             0.0000000000
     12028       661  HOAC      H               8.2418008675      -34.1826756434      -10.2238315792  HOAC      204             0.0000000000
     12029       661  HOAC      LPO11           9.5863696875      -32.7505584986      -11.0824305869  HOAC      204             0.0000000000
     12030       661  HOAC      LPO12           9.8287966901      -32.6335470070      -11.6185535281  HOAC      204             0.0000000000
     12031       661  HOAC      LPO21           7.8069922546      -34.1389329331      -11.1193686002  HOAC      204             0.0000000000
     12032       661  HOAC      LPO22           8.2328417346      -34.6350219900      -11.1116722334  HOAC      204             0.0000000000
     12033       662  HOAC      C1             11.5219373754      -20.8704665597       15.5223630306  HOAC      205             0.0000000000
     12034       662  HOAC      DC1            11.5315529631      -20.8719023866       15.5210019638  HOAC      205             0.0000000000
     12035       662  HOAC      C2             12.0868886410      -19.9989011307       16.5927579005  HOAC      205             0.0000000000
     12036       662  HOAC      DC2            12.0675161891      -20.0214713073       16.5808962033  HOAC      205             0.0000000000
     12037       662  HOAC      H1             11.3626807167      -19.1962797010       16.8489662601  HOAC      205             0.0000000000
     12038       662  HOAC      H2             13.0330489085      -19.5227311627       16.2575506367  HOAC      205             0.0000000000
     12039       662  HOAC      H3             12.2901682065      -20.5995374217       17.5050267564  HOAC      205             0.0000000000
     12040       662  HOAC      O1             12.0117773458      -21.0727626928       14.4206351907  HOAC      205             0.0000000000
     12041       662  HOAC      DO1            11.9902208305      -21.0841327114       14.4275101800  HOAC      205             0.0000000000
     12042       662  HOAC      O2             10.3744355316      -21.4794592163       15.9389388287  HOAC      205             0.0000000000
     12043       662  HOAC      DO2            10.3869469219      -21.4737310340       15.9554095540  HOAC      205             0.0000000000
     12044       662  HOAC      H               9.9867540258      -21.9261272107       15.1713766143  HOAC      205             0.0000000000
     12045       662  HOAC      LPO11          11.7912643787      -21.2642165778       14.3519370013  HOAC      205             0.0000000000
     12046       662  HOAC      LPO12          12.2364858539      -20.8830414995       14.4798969427  HOAC      205             0.0000000000
     12047       662  HOAC      LPO21          10.4397370527      -21.8034797638       16.0540318176  HOAC      205             0.0000000000
     12048       662  HOAC      LPO22          10.1008548003      -21.2629998981       15.9106731768  HOAC      205             0.0000000000
     12049       663  HOAC      C1             28.7438884023       -0.0420552184       -8.1087899878  HOAC      206             0.0000000000
     12050       663  HOAC      DC1            28.7465068475       -0.0611948121       -8.0970452300  HOAC      206             0.0000000000
     12051       663  HOAC      C2             28.6450392102       -1.0623590881       -7.0384928248  HOAC      206             0.0000000000
     12052       663  HOAC      DC2            28.6478563590       -1.0729049101       -7.0327756175  HOAC      206             0.0000000000
     12053       663  HOAC      H1             28.1928113101       -1.9892085752       -7.4517251508  HOAC      206             0.0000000000
     12054       663  HOAC      H2             28.0058129714       -0.6717008089       -6.2180679809  HOAC      206             0.0000000000
     12055       663  HOAC      H3             29.6646266349       -1.2648900405       -6.6463911819  HOAC      206             0.0000000000
     12056       663  HOAC      O1             28.2124346812        1.0478821177       -8.0719299502  HOAC      206             0.0000000000
     12057       663  HOAC      DO1            28.2421565901        1.0251214295       -8.0706438109  HOAC      206             0.0000000000
     12058       663  HOAC      O2             29.5521561321       -0.4587884176       -9.1207335853  HOAC      206             0.0000000000
     12059       663  HOAC      DO2            29.5552962795       -0.4745743290       -9.1029920506  HOAC      206             0.0000000000
     12060       663  HOAC      H              29.5459192596        0.2445770699       -9.7872162125  HOAC      206             0.0000000000
     12061       663  HOAC      LPO11          28.3365215324        1.1230944450       -8.3345048141  HOAC      206             0.0000000000
     12062       663  HOAC      LPO12          28.0837605761        0.9820776070       -7.8090369281  HOAC      206             0.0000000000
     12063       663  HOAC      LPO21          29.8834115015       -0.3608582261       -9.0643460177  HOAC      206             0.0000000000
     12064       663  HOAC      LPO22          29.3713510089       -0.6428932549       -9.3571969362  HOAC      206             0.0000000000
     12065       664  HOAC      C1             -8.3510226517       -4.7584848757       20.2614193660  HOAC      207             0.0000000000
     12066       664  HOAC      DC1            -8.3394733818       -4.7856079732       20.2702198502  HOAC      207             0.0000000000
     12067       664  HOAC      C2             -8.3836630995       -6.2040913432       20.6340948868  HOAC      207             0.0000000000
     12068       664  HOAC      DC2            -8.3725339698       -6.2179073482       20.6460833913  HOAC      207             0.0000000000
     12069       664  HOAC      H1             -8.6044099820       -6.8109229131       19.7300222903  HOAC      207             0.0000000000
     12070       664  HOAC      H2             -9.1870031357       -6.3535086406       21.3868499990  HOAC      207             0.0000000000
     12071       664  HOAC      H3             -7.3998792470       -6.5032265757       21.0548186029  HOAC      207             0.0000000000
     12072       664  HOAC      O1             -9.0585274018       -3.8917611871       20.7382433014  HOAC      207             0.0000000000
     12073       664  HOAC      DO1            -9.0173777491       -3.9037501325       20.7272077839  HOAC      207             0.0000000000
     12074       664  HOAC      O2             -7.3441256638       -4.5016543234       19.3825648342  HOAC      207             0.0000000000
     12075       664  HOAC      DO2            -7.3274308209       -4.5264874868       19.3954759625  HOAC      207             0.0000000000
     12076       664  HOAC      H              -7.5491029616       -3.6205232199       19.0353569918  HOAC      207             0.0000000000
     12077       664  HOAC      LPO11          -8.9106839007       -3.6798610462       20.5857945248  HOAC      207             0.0000000000
     12078       664  HOAC      LPO12          -9.2124625139       -4.0961988429       20.8947975288  HOAC      207             0.0000000000
     12079       664  HOAC      LPO21          -7.0741579196       -4.3476665418       19.5435156970  HOAC      207             0.0000000000
     12080       664  HOAC      LPO22          -7.4247025053       -4.6186776708       19.0627009432  HOAC      207             0.0000000000
     12081       665  HOAC      C1             33.3523291534      -16.9985259167       17.1149515862  HOAC      208             0.0000000000
     12082       665  HOAC      DC1            33.3486495828      -16.9806749147       17.1076335243  HOAC      208             0.0000000000
     12083       665  HOAC      C2             34.4402391194      -16.0752381716       16.6811362470  HOAC      208             0.0000000000
     12084       665  HOAC      DC2            34.4328664604      -16.0731704396       16.6905041459  HOAC      208             0.0000000000
     12085       665  HOAC      H1             35.2796377354      -16.1145070951       17.4079023133  HOAC      208             0.0000000000
     12086       665  HOAC      H2             34.0542604516      -15.0349491261       16.6250990175  HOAC      208             0.0000000000
     12087       665  HOAC      H3             34.7996666443      -16.3729595176       15.6729225519  HOAC      208             0.0000000000
     12088       665  HOAC      O1             32.2041774530      -16.6397777956       17.3363932291  HOAC      208             0.0000000000
     12089       665  HOAC      DO1            32.2112797335      -16.6512198879       17.3468657705  HOAC      208             0.0000000000
     12090       665  HOAC      O2             33.7757840215      -18.2873882159       17.2070757671  HOAC      208             0.0000000000
     12091       665  HOAC      DO2            33.7847605555      -18.2673702535       17.1932595584  HOAC      208             0.0000000000
     12092       665  HOAC      H              33.0342630476      -18.8386977084       17.4989070345  HOAC      208             0.0000000000
     12093       665  HOAC      LPO11          32.1224603967      -16.9217049974       17.3983559245  HOAC      208             0.0000000000
     12094       665  HOAC      LPO12          32.2760647779      -16.3547792247       17.2763263737  HOAC      208             0.0000000000
     12095       665  HOAC      LPO21          33.7346370446      -18.4544209244       16.9022692702  HOAC      208             0.0000000000
     12096       665  HOAC      LPO22          33.9051261199      -18.3538648771       17.5254332314  HOAC      208             0.0000000000
     12097       666  HOAC      C1            -24.8148123649       12.6752093974       29.4569282578  HOAC      209             0.0000000000
     12098       666  HOAC      DC1           -24.8257779965       12.6943011888       29.4607689419  HOAC      209             0.0000000000
     12099       666  HOAC      C2            -25.8898332659       13.3701177269       30.2281040488  HOAC      209             0.0000000000
     12100       666  HOAC      DC2           -25.8864959599       13.3799553397       30.2208966640  HOAC      209             0.0000000000
     12101       666  HOAC      H1            -25.4334873184       14.1636041063       30.8577458062  HOAC      209             0.0000000000
     12102       666  HOAC      H2            -26.4148146165       12.6406419720       30.8812355091  HOAC      209             0.0000000000
     12103       666  HOAC      H3            -26.6232934943       13.8247317173       29.5283303609  HOAC      209             0.0000000000
     12104       666  HOAC      O1            -24.4928419199       11.5065671639       29.5576396648  HOAC      209             0.0000000000
     12105       666  HOAC      DO1           -24.4876112122       11.5454089565       29.5410898328  HOAC      209             0.0000000000
     12106       666  HOAC      O2            -24.1901573286       13.5276601005       28.6045324517  HOAC      209             0.0000000000
     12107       666  HOAC      DO2           -24.1978483115       13.5457974281       28.6087846859  HOAC      209             0.0000000000
     12108       666  HOAC      H             -23.5496002700       12.9817607529       28.1242808958  HOAC      209             0.0000000000
     12109       666  HOAC      LPO11         -24.2782361625       11.5424443865       29.3511034844  HOAC      209             0.0000000000
     12110       666  HOAC      LPO12         -24.7046758872       11.4606292946       29.7650428529  HOAC      209             0.0000000000
     12111       666  HOAC      LPO21         -24.3611065007       13.5470165054       28.2997346333  HOAC      209             0.0000000000
     12112       666  HOAC      LPO22         -23.9107143302       13.6736911263       28.7564750401  HOAC      209             0.0000000000
     12113       667  HOAC      C1            -17.2757560107        6.2612717296       22.1130825176  HOAC      210             0.0000000000
     12114       667  HOAC      DC1           -17.2751409695        6.2710005616       22.1276601812  HOAC      210             0.0000000000
     12115       667  HOAC      C2            -15.9347231056        6.8994972903       22.1719938819  HOAC      210             0.0000000000
     12116       667  HOAC      DC2           -15.9594040542        6.9138359165       22.1813687397  HOAC      210             0.0000000000
     12117       667  HOAC      H1            -15.2244695810        6.2730127686       21.5911513247  HOAC      210             0.0000000000
     12118       667  HOAC      H2            -15.5760565013        6.9753212830       23.2207693532  HOAC      210             0.0000000000
     12119       667  HOAC      H3            -15.9787693582        7.9106598627       21.7138114074  HOAC      210             0.0000000000
     12120       667  HOAC      O1            -17.9333820438        5.8934513143       23.0768529284  HOAC      210             0.0000000000
     12121       667  HOAC      DO1           -17.9373962854        5.8997538854       23.0631658255  HOAC      210             0.0000000000
     12122       667  HOAC      O2            -17.7283247415        6.2365580932       20.8356329723  HOAC      210             0.0000000000
     12123       667  HOAC      DO2           -17.7211961397        6.2589463705       20.8521685578  HOAC      210             0.0000000000
     12124       667  HOAC      H             -18.5221434813        5.6826236971       20.7912540009  HOAC      210             0.0000000000
     12125       667  HOAC      LPO11         -18.1651119147        5.8247270628       22.8991502437  HOAC      210             0.0000000000
     12126       667  HOAC      LPO12         -17.7072811592        5.9590271867       23.2628050592  HOAC      210             0.0000000000
     12127       667  HOAC      LPO21         -17.9518190086        6.4995040811       20.7772401642  HOAC      210             0.0000000000
     12128       667  HOAC      LPO22         -17.5796316295        5.9758911712       20.6555132504  HOAC      210             0.0000000000
     12129       668  HOAC      C1              7.5560476475       29.2927945082      -22.9685071974  HOAC      211             0.0000000000
     12130       668  HOAC      DC1             7.5331204212       29.3018752799      -22.9819529685  HOAC      211             0.0000000000
     12131       668  HOAC      C2              8.4659858753       29.0214849373      -24.1116862095  HOAC      211             0.0000000000
     12132       668  HOAC      DC2             8.4408573171       29.0354751101      -24.0927933513  HOAC      211             0.0000000000
     12133       668  HOAC      H1              9.3221178983       29.7292183015      -24.0899504136  HOAC      211             0.0000000000
     12134       668  HOAC      H2              7.9290758037       29.1289334598      -25.0783833648  HOAC      211             0.0000000000
     12135       668  HOAC      H3              8.8618176329       27.9862655701      -24.0344911153  HOAC      211             0.0000000000
     12136       668  HOAC      O1              6.4025074854       29.7104063384      -23.0538170270  HOAC      211             0.0000000000
     12137       668  HOAC      DO1             6.3967370644       29.7264765075      -23.0367682384  HOAC      211             0.0000000000
     12138       668  HOAC      O2              8.1857469652       29.0632837614      -21.7913738389  HOAC      211             0.0000000000
     12139       668  HOAC      DO2             8.1854719748       29.0652215806      -21.8137999200  HOAC      211             0.0000000000
     12140       668  HOAC      H               7.5857173478       29.2574269458      -21.0556878447  HOAC      211             0.0000000000
     12141       668  HOAC      LPO11           6.3778996361       29.7189046297      -22.7549487737  HOAC      211             0.0000000000
     12142       668  HOAC      LPO12           6.4172929785       29.7054639979      -23.3534116906  HOAC      211             0.0000000000
     12143       668  HOAC      LPO21           8.1433338898       28.7310477734      -21.6897845711  HOAC      211             0.0000000000
     12144       668  HOAC      LPO22           8.3536606989       29.3500849534      -21.6816010996  HOAC      211             0.0000000000
     12145       669  HOAC      C1             36.2125278564       31.5018920891        2.8526500307  HOAC      212             0.0000000000
     12146       669  HOAC      DC1            36.2098061467       31.4875525434        2.8544072753  HOAC      212             0.0000000000
     12147       669  HOAC      C2             35.5974793970       30.2930750235        3.4671487976  HOAC      212             0.0000000000
     12148       669  HOAC      DC2            35.6109932868       30.2938009389        3.4561494913  HOAC      212             0.0000000000
     12149       669  HOAC      H1             34.6286707720       30.0692142404        2.9715509769  HOAC      212             0.0000000000
     12150       669  HOAC      H2             35.4480875375       30.4433272101        4.5577575053  HOAC      212             0.0000000000
     12151       669  HOAC      H3             36.2172265036       29.3897450427        3.2821367181  HOAC      212             0.0000000000
     12152       669  HOAC      O1             36.2578565533       32.6161363557        3.3447663601  HOAC      212             0.0000000000
     12153       669  HOAC      DO1            36.2687224854       32.5980233164        3.3144512993  HOAC      212             0.0000000000
     12154       669  HOAC      O2             36.7377399029       31.2123531991        1.6273322924  HOAC      212             0.0000000000
     12155       669  HOAC      DO2            36.7336872722       31.1946791897        1.6355026824  HOAC      212             0.0000000000
     12156       669  HOAC      H              37.0705784666       32.0470413159        1.2647371487  HOAC      212             0.0000000000
     12157       669  HOAC      LPO11          36.4026993482       32.7221389895        3.1043833191  HOAC      212             0.0000000000
     12158       669  HOAC      LPO12          36.1134031652       32.5197058980        3.5893770416  HOAC      212             0.0000000000
     12159       669  HOAC      LPO21          37.0754316348       31.1242654861        1.6538812855  HOAC      212             0.0000000000
     12160       669  HOAC      LPO22          36.4934056267       31.2364618832        1.3778938574  HOAC      212             0.0000000000
     12161       670  HOAC      C1             -0.0389631317       31.8721581987       17.7340439778  HOAC      213             0.0000000000
     12162       670  HOAC      DC1            -0.0346266737       31.8583717895       17.7409315581  HOAC      213             0.0000000000
     12163       670  HOAC      C2             -0.7650043472       31.4109526187       18.9477502047  HOAC      213             0.0000000000
     12164       670  HOAC      DC2            -0.7534300992       31.4028517601       18.9559742152  HOAC      213             0.0000000000
     12165       670  HOAC      H1             -0.4167961739       31.9829663862       19.8342446042  HOAC      213             0.0000000000
     12166       670  HOAC      H2             -0.5607410882       30.3268957435       19.0797282823  HOAC      213             0.0000000000
     12167       670  HOAC      H3             -1.8582950199       31.5640096568       18.8228100270  HOAC      213             0.0000000000
     12168       670  HOAC      O1              0.6218953768       31.1393540148       17.0084859622  HOAC      213             0.0000000000
     12169       670  HOAC      DO1             0.6322168344       31.1560996637       17.0152957978  HOAC      213             0.0000000000
     12170       670  HOAC      O2             -0.0974828471       33.2231705718       17.5839122469  HOAC      213             0.0000000000
     12171       670  HOAC      DO2            -0.0830450569       33.2193449489       17.6048296307  HOAC      213             0.0000000000
     12172       670  HOAC      H               0.1823396923       33.4157596660       16.6764047884  HOAC      213             0.0000000000
     12173       670  HOAC      LPO11           0.7163683854       31.3746135653       16.8480871014  HOAC      213             0.0000000000
     12174       670  HOAC      LPO12           0.5330723203       30.8978294189       17.1626817282  HOAC      213             0.0000000000
     12175       670  HOAC      LPO21          -0.4146593611       33.3230399982       17.4747098813  HOAC      213             0.0000000000
     12176       670  HOAC      LPO22           0.2053635600       33.3723031715       17.6763434178  HOAC      213             0.0000000000
     12177       671  HOAC      C1            -15.5115953779      -25.2822144414      -19.6405279443  HOAC      214             0.0000000000
     12178       671  HOAC      DC1           -15.5041484621      -25.2810156164      -19.6367415529  HOAC      214             0.0000000000
     12179       671  HOAC      C2            -14.1420215319      -25.3371215519      -20.2324399864  HOAC      214             0.0000000000
     12180       671  HOAC      DC2           -14.1475263557      -25.3206332938      -20.2264261392  HOAC      214             0.0000000000
     12181       671  HOAC      H1            -14.2111501531      -25.2522920677      -21.3380376504  HOAC      214             0.0000000000
     12182       671  HOAC      H2            -13.6513860180      -26.2989248846      -19.9706535424  HOAC      214             0.0000000000
     12183       671  HOAC      H3            -13.5319077485      -24.4912762709      -19.8495197180  HOAC      214             0.0000000000
     12184       671  HOAC      O1            -15.9853672002      -26.0610843125      -18.8270846058  HOAC      214             0.0000000000
     12185       671  HOAC      DO1           -15.9944009580      -26.0371044266      -18.8294793022  HOAC      214             0.0000000000
     12186       671  HOAC      O2            -16.1681645922      -24.1785346789      -20.0840197562  HOAC      214             0.0000000000
     12187       671  HOAC      DO2           -16.1431652356      -24.1790965706      -20.0953853840  HOAC      214             0.0000000000
     12188       671  HOAC      H             -17.0471987964      -24.1721819865      -19.6763194848  HOAC      214             0.0000000000
     12189       671  HOAC      LPO11         -16.2368187364      -25.8983700485      -18.8098743413  HOAC      214             0.0000000000
     12190       671  HOAC      LPO12         -15.7379761378      -26.2304739013      -18.8373232329  HOAC      214             0.0000000000
     12191       671  HOAC      LPO21         -16.1058345034      -23.9041251130      -19.8758987573  HOAC      214             0.0000000000
     12192       671  HOAC      LPO22         -16.3420710835      -24.2471823036      -20.3798981702  HOAC      214             0.0000000000
     12193       672  HOAC      C1            -28.2352427586       27.1961045522      -29.9678298454  HOAC      215             0.0000000000
     12194       672  HOAC      DC1           -28.2392990962       27.1799657470      -29.9760931950  HOAC      215             0.0000000000
     12195       672  HOAC      C2            -27.0691809550       26.3161349636      -29.6856609165  HOAC      215             0.0000000000
     12196       672  HOAC      DC2           -27.0772372696       26.3188537345      -29.6976882960  HOAC      215             0.0000000000
     12197       672  HOAC      H1            -26.2007534476       26.6342197885      -30.3012717583  HOAC      215             0.0000000000
     12198       672  HOAC      H2            -27.3294186163       25.2612887023      -29.9178176014  HOAC      215             0.0000000000
     12199       672  HOAC      H3            -26.7969715574       26.3982139942      -28.6116562252  HOAC      215             0.0000000000
     12200       672  HOAC      O1            -29.3291014154       26.8276944506      -30.3792505822  HOAC      215             0.0000000000
     12201       672  HOAC      DO1           -29.3258639898       26.8468136561      -30.3835964094  HOAC      215             0.0000000000
     12202       672  HOAC      O2            -27.9126335706       28.4962516962      -29.7789421024  HOAC      215             0.0000000000
     12203       672  HOAC      DO2           -27.9130654026       28.4726856246      -29.7974329957  HOAC      215             0.0000000000
     12204       672  HOAC      H             -28.7007798664       29.0486597440      -29.8913332278  HOAC      215             0.0000000000
     12205       672  HOAC      LPO11         -29.4239554705       27.1117494377      -30.3970121289  HOAC      215             0.0000000000
     12206       672  HOAC      LPO12         -29.2435950060       26.5404911892      -30.3650048602  HOAC      215             0.0000000000
     12207       672  HOAC      LPO21         -27.9438024390       28.5849220724      -29.4417981183  HOAC      215             0.0000000000
     12208       672  HOAC      LPO22         -27.8110758539       28.6445971655      -30.0792413730  HOAC      215             0.0000000000
     12209       673  HOAC      C1             12.3035904549       -9.7618273600       -4.2927513523  HOAC      216             0.0000000000
     12210       673  HOAC      DC1            12.3164974483       -9.7731970515       -4.2925404393  HOAC      216             0.0000000000
     12211       673  HOAC      C2             13.7842592772       -9.8786620777       -4.3860146711  HOAC      216             0.0000000000
     12212       673  HOAC      DC2            13.7955531030       -9.8812289240       -4.4104943710  HOAC      216             0.0000000000
     12213       673  HOAC      H1             14.0419368785      -10.1378091448       -5.4351886567  HOAC      216             0.0000000000
     12214       673  HOAC      H2             14.1375949367      -10.6806662145       -3.7031792026  HOAC      216             0.0000000000
     12215       673  HOAC      H3             14.2596396231       -8.9187210447       -4.0913152651  HOAC      216             0.0000000000
     12216       673  HOAC      O1             11.5903877681      -10.5348017273       -3.6754135936  HOAC      216             0.0000000000
     12217       673  HOAC      DO1            11.5838742335      -10.5111457607       -3.6899679991  HOAC      216             0.0000000000
     12218       673  HOAC      O2             11.8222370262       -8.7377310952       -5.0538959465  HOAC      216             0.0000000000
     12219       673  HOAC      DO2            11.8334765019       -8.7456428988       -5.0388167319  HOAC      216             0.0000000000
     12220       673  HOAC      H              10.8536352465       -8.7585765889       -5.0355368141  HOAC      216             0.0000000000
     12221       673  HOAC      LPO11          11.3441985581      -10.3938554703       -3.7730098309  HOAC      216             0.0000000000
     12222       673  HOAC      LPO12          11.8304530925      -10.6823850968       -3.5725166111  HOAC      216             0.0000000000
     12223       673  HOAC      LPO21          11.7842739114       -8.4471146648       -4.8625823499  HOAC      216             0.0000000000
     12224       673  HOAC      LPO22          11.7827377104       -8.8376090504       -5.3870088375  HOAC      216             0.0000000000
     12225       674  HOAC      C1             -9.0136005886       25.5326589532       31.7236640364  HOAC      217             0.0000000000
     12226       674  HOAC      DC1            -9.0082621182       25.5220752811       31.7195526827  HOAC      217             0.0000000000
     12227       674  HOAC      C2             -7.7567032894       24.7469073519       31.8266910781  HOAC      217             0.0000000000
     12228       674  HOAC      DC2            -7.7592523670       24.7513565225       31.8256412960  HOAC      217             0.0000000000
     12229       674  HOAC      H1             -7.0429736949       25.1031289825       31.0533753497  HOAC      217             0.0000000000
     12230       674  HOAC      H2             -7.9586594317       23.6651754223       31.6737507271  HOAC      217             0.0000000000
     12231       674  HOAC      H3             -7.3256710760       24.9014233590       32.8389445213  HOAC      217             0.0000000000
     12232       674  HOAC      O1            -10.1308535645       25.0736913067       31.5336592963  HOAC      217             0.0000000000
     12233       674  HOAC      DO1           -10.1221714011       25.0952130013       31.5346134535  HOAC      217             0.0000000000
     12234       674  HOAC      O2             -8.7553161062       26.8628076781       31.8315535003  HOAC      217             0.0000000000
     12235       674  HOAC      DO2            -8.7392475654       26.8528021935       31.8202364433  HOAC      217             0.0000000000
     12236       674  HOAC      H              -9.6077471095       27.3040634044       31.9642779090  HOAC      217             0.0000000000
     12237       674  HOAC      LPO11         -10.2492665558       25.3493145464       31.5304666096  HOAC      217             0.0000000000
     12238       674  HOAC      LPO12         -10.0220089095       24.7941373935       31.5352247516  HOAC      217             0.0000000000
     12239       674  HOAC      LPO21          -8.6925865469       26.9512273784       32.1643401571  HOAC      217             0.0000000000
     12240       674  HOAC      LPO22          -8.7594516602       27.0166988432       31.5172281808  HOAC      217             0.0000000000
     12241       675  HPTSH     C1             -2.8597229788       25.0861551460      -32.5109390480  HPTSH     1               0.0000000000
     12242       675  HPTSH     DC1            -2.8718482356       25.1904458441      -32.6129637188  HPTSH     1               0.0000000000
     12243       675  HPTSH     C2             -2.3274588069       25.7789885236      -33.5765950964  HPTSH     1               0.0000000000
     12244       675  HPTSH     DC2            -2.2334454350       25.8256032005      -33.6698225940  HPTSH     1               0.0000000000
     12245       675  HPTSH     C3             -1.0719912279       25.4668072477      -34.0934011501  HPTSH     1               0.0000000000
     12246       675  HPTSH     DC3            -0.9939022027       25.3880580518      -34.0775692518  HPTSH     1               0.0000000000
     12247       675  HPTSH     C4             -0.3500556301       24.3914340614      -33.4975835431  HPTSH     1               0.0000000000
     12248       675  HPTSH     DC4            -0.3248711433       24.3606676175      -33.4699933974  HPTSH     1               0.0000000000
     12249       675  HPTSH     C5              0.9617327494       24.0575299881      -33.9157949167  HPTSH     1               0.0000000000
     12250       675  HPTSH     DC5             0.9411947830       24.0526422881      -33.8993389621  HPTSH     1               0.0000000000
     12251       675  HPTSH     C6              1.5903544921       24.8297751581      -34.9035583677  HPTSH     1               0.0000000000
     12252       675  HPTSH     DC6             1.6161570429       24.8327876577      -34.9117062464  HPTSH     1               0.0000000000
     12253       675  HPTSH     C7              0.8723427041       25.9258055677      -35.4512446101  HPTSH     1               0.0000000000
     12254       675  HPTSH     DC7             0.8589748373       25.9100383909      -35.4464980276  HPTSH     1               0.0000000000
     12255       675  HPTSH     C8             -0.4555551552       26.2724019696      -35.0796270442  HPTSH     1               0.0000000000
     12256       675  HPTSH     DC8            -0.4618827678       26.3039061237      -35.0998819931  HPTSH     1               0.0000000000
     12257       675  HPTSH     S1             -1.3901516860       27.8339793958      -35.6090584986  HPTSH     1               0.0000000000
     12258       675  HPTSH     DS1            -1.3751516739       27.8574800545      -35.6313367167  HPTSH     1               0.0000000000
     12259       675  HPTSH     O1             -1.6779496715       28.7730911340      -34.4757953027  HPTSH     1               0.0000000000
     12260       675  HPTSH     DO1            -1.6679540004       28.7966772668      -34.4926730575  HPTSH     1               0.0000000000
     12261       675  HPTSH     O2             -0.5629049903       28.6347419398      -36.5595798149  HPTSH     1               0.0000000000
     12262       675  HPTSH     DO2            -0.5383778967       28.6595901502      -36.5724920904  HPTSH     1               0.0000000000
     12263       675  HPTSH     O3             -2.6050499730       27.4151281489      -36.3413117649  HPTSH     1               0.0000000000
     12264       675  HPTSH     DO3            -2.5998183200       27.4313768548      -36.3547592831  HPTSH     1               0.0000000000
     12265       675  HPTSH     S2              3.3489803082       24.4554199465      -35.3719908121  HPTSH     1               0.0000000000
     12266       675  HPTSH     DS2             3.3555729587       24.4744415276      -35.3893857969  HPTSH     1               0.0000000000
     12267       675  HPTSH     O4              3.5714050413       25.3915510796      -36.5193757780  HPTSH     1               0.0000000000
     12268       675  HPTSH     DO4             3.5623059356       25.4065652020      -36.5544452503  HPTSH     1               0.0000000000
     12269       675  HPTSH     O5              3.3962782198       23.0399682694      -35.8553996256  HPTSH     1               0.0000000000
     12270       675  HPTSH     DO5             3.4002958207       23.0537817103      -35.8668645231  HPTSH     1               0.0000000000
     12271       675  HPTSH     O6              4.2843246662       24.7276931988      -34.2179214982  HPTSH     1               0.0000000000
     12272       675  HPTSH     DO6             4.2922883153       24.7264002685      -34.2184620368  HPTSH     1               0.0000000000
     12273       675  HPTSH     C9              1.6474161780       23.0255679016      -33.2587897585  HPTSH     1               0.0000000000
     12274       675  HPTSH     DC9             1.6633952760       23.0327991057      -33.2629623742  HPTSH     1               0.0000000000
     12275       675  HPTSH     C10             1.0764125147       22.3264428725      -32.2075099114  HPTSH     1               0.0000000000
     12276       675  HPTSH     DC10            1.0338976732       22.3228247519      -32.1727218799  HPTSH     1               0.0000000000
     12277       675  HPTSH     C11            -0.1987048466       22.6488381930      -31.7592271584  HPTSH     1               0.0000000000
     12278       675  HPTSH     DC11           -0.2418583519       22.6721206273      -31.7558033035  HPTSH     1               0.0000000000
     12279       675  HPTSH     C12            -0.8012133657       21.9660451119      -30.6902137553  HPTSH     1               0.0000000000
     12280       675  HPTSH     DC12           -0.8718316232       21.9661037479      -30.6453864924  HPTSH     1               0.0000000000
     12281       675  HPTSH     C13            -2.0896072736       22.3189067648      -30.2661611567  HPTSH     1               0.0000000000
     12282       675  HPTSH     DC13           -2.2599236797       22.4368971050      -30.2649667759  HPTSH     1               0.0000000000
     12283       675  HPTSH     C14            -2.7446722232       23.3406535077      -30.8668739848  HPTSH     1               0.0000000000
     12284       675  HPTSH     DC14           -2.7280741365       23.4047353273      -30.9492034522  HPTSH     1               0.0000000000
     12285       675  HPTSH     C15            -2.1823538974       24.0535221255      -31.9232826869  HPTSH     1               0.0000000000
     12286       675  HPTSH     DC15           -2.2640246480       24.1521581604      -31.9732261082  HPTSH     1               0.0000000000
     12287       675  HPTSH     C16            -0.9082632386       23.6946202452      -32.4028492806  HPTSH     1               0.0000000000
     12288       675  HPTSH     DC16           -0.9539458896       23.6729432176      -32.3528739840  HPTSH     1               0.0000000000
     12289       675  HPTSH     O7             -4.0140550214       23.5714450673      -30.3746312150  HPTSH     1               0.0000000000
     12290       675  HPTSH     DO7            -4.0356608170       23.5693091261      -30.3711383536  HPTSH     1               0.0000000000
     12291       675  HPTSH     S3              0.0507285307       20.5897477718      -29.8216289409  HPTSH     1               0.0000000000
     12292       675  HPTSH     DS3             0.0363446820       20.6139431651      -29.8299937373  HPTSH     1               0.0000000000
     12293       675  HPTSH     O8             -0.9834500193       20.1773933898      -28.8273695655  HPTSH     1               0.0000000000
     12294       675  HPTSH     DO8            -0.9903976285       20.2018783906      -28.8362811333  HPTSH     1               0.0000000000
     12295       675  HPTSH     O9              0.3778866048       19.5442788862      -30.8254775850  HPTSH     1               0.0000000000
     12296       675  HPTSH     DO9             0.3799324897       19.5599040052      -30.8134968140  HPTSH     1               0.0000000000
     12297       675  HPTSH     O10             1.2677678232       21.1795047960      -29.1904958949  HPTSH     1               0.0000000000
     12298       675  HPTSH     DO10            1.2699385404       21.1737926294      -29.1998986053  HPTSH     1               0.0000000000
     12299       675  HPTSH     H1             -3.8297442672       25.3475502285      -32.1145411282  HPTSH     1               0.0000000000
     12300       675  HPTSH     H2             -2.9111260700       26.5976530530      -33.9709564970  HPTSH     1               0.0000000000
     12301       675  HPTSH     H3              1.4093917783       26.5525179642      -36.1478146813  HPTSH     1               0.0000000000
     12302       675  HPTSH     H4              2.6558935694       22.7575462251      -33.5372457372  HPTSH     1               0.0000000000
     12303       675  HPTSH     H5              1.6501602987       21.5366309424      -31.7455460651  HPTSH     1               0.0000000000
     12304       675  HPTSH     H6             -2.5524165570       21.7175681716      -29.4976564635  HPTSH     1               0.0000000000
     12305       675  HPTSH     H7             -3.9810246655       22.9073470212      -29.6683856623  HPTSH     1               0.0000000000
     12306       675  HPTSH     LPO11          -1.5515188137       28.6422134226      -34.1768199478  HPTSH     1               0.0000000000
     12307       675  HPTSH     LPO12          -1.8503255549       29.0538917602      -34.5938527599  HPTSH     1               0.0000000000
     12308       675  HPTSH     LPO21          -0.2563701004       28.4752347574      -36.6152019331  HPTSH     1               0.0000000000
     12309       675  HPTSH     LPO22          -0.7367844584       28.9226576049      -36.6563811597  HPTSH     1               0.0000000000
     12310       675  HPTSH     LPO31          -2.6208847858       27.0658404221      -36.3570388938  HPTSH     1               0.0000000000
     12311       675  HPTSH     LPO32          -2.7858700673       27.6966166584      -36.4441140632  HPTSH     1               0.0000000000
     12312       675  HPTSH     LPO41           3.2813231847       25.5778114374      -36.5798703689  HPTSH     1               0.0000000000
     12313       675  HPTSH     LPO42           3.8970488272       25.3549621571      -36.6423285148  HPTSH     1               0.0000000000
     12314       675  HPTSH     LPO51           3.0768211352       22.8977280565      -35.8407403996  HPTSH     1               0.0000000000
     12315       675  HPTSH     LPO52           3.7233022998       22.9557562806      -35.9473974085  HPTSH     1               0.0000000000
     12316       675  HPTSH     LPO61           4.1030808744       24.8428963710      -33.9415541393  HPTSH     1               0.0000000000
     12317       675  HPTSH     LPO62           4.6138442488       24.6556522389      -34.3113396163  HPTSH     1               0.0000000000
     12318       675  HPTSH     LPO71          -3.9907506678       23.8642040708      -30.1842393218  HPTSH     1               0.0000000000
     12319       675  HPTSH     LPO72          -4.2328984080       23.4130411627      -30.5971526188  HPTSH     1               0.0000000000
     12320       675  HPTSH     LPO81          -1.2687440399       20.3772468677      -28.8615149778  HPTSH     1               0.0000000000
     12321       675  HPTSH     LPO82          -0.8640293552       19.9114018109      -28.6337534894  HPTSH     1               0.0000000000
     12322       675  HPTSH     LPO91           0.2674149478       19.6438081424      -31.1423213007  HPTSH     1               0.0000000000
     12323       675  HPTSH     LPO92           0.5410730481       19.2762938488      -30.6703834057  HPTSH     1               0.0000000000
     12324       675  HPTSH     LPO101          1.2852573642       21.5218686721      -29.2610727485  HPTSH     1               0.0000000000
     12325       675  HPTSH     LPO102          1.4455153796       20.9317495740      -29.0186728575  HPTSH     1               0.0000000000
     12326       676  HPTSH     C1             23.2182840957       25.1909514060       30.7028077064  HPTSH     2               0.0000000000
     12327       676  HPTSH     DC1            23.2565619577       25.1090154737       30.6953895285  HPTSH     2               0.0000000000
     12328       676  HPTSH     C2             24.4523840860       24.5916113742       30.9519937778  HPTSH     2               0.0000000000
     12329       676  HPTSH     DC2            24.5188084134       24.5688003581       30.9679300291  HPTSH     2               0.0000000000
     12330       676  HPTSH     C3             25.5337221011       25.3255518600       31.4450103263  HPTSH     2               0.0000000000
     12331       676  HPTSH     DC3            25.4965953994       25.4229830678       31.4560029167  HPTSH     2               0.0000000000
     12332       676  HPTSH     C4             25.3527052227       26.7112802066       31.6842210438  HPTSH     2               0.0000000000
     12333       676  HPTSH     DC4            25.3360324994       26.7494847900       31.6974699315  HPTSH     2               0.0000000000
     12334       676  HPTSH     C5             26.4266585356       27.5081607979       32.1613704037  HPTSH     2               0.0000000000
     12335       676  HPTSH     DC5            26.3462557198       27.5659285566       32.1532335194  HPTSH     2               0.0000000000
     12336       676  HPTSH     C6             27.6844095974       26.9216971126       32.3969683311  HPTSH     2               0.0000000000
     12337       676  HPTSH     DC6            27.6352687825       26.9530016418       32.4010444783  HPTSH     2               0.0000000000
     12338       676  HPTSH     C7             27.8431793567       25.5348681246       32.1565208967  HPTSH     2               0.0000000000
     12339       676  HPTSH     DC7            27.7812828592       25.5607173395       32.1488691357  HPTSH     2               0.0000000000
     12340       676  HPTSH     C8             26.7832972001       24.7165492086       31.6888980039  HPTSH     2               0.0000000000
     12341       676  HPTSH     DC8            26.7533928136       24.7022684871       31.6810680825  HPTSH     2               0.0000000000
     12342       676  HPTSH     S1             27.0578381423       22.8676861103       31.4165345852  HPTSH     2               0.0000000000
     12343       676  HPTSH     DS1            27.0598423367       22.8684335897       31.4198055301  HPTSH     2               0.0000000000
     12344       676  HPTSH     O1             26.7200291149       22.5442087999       29.9811693448  HPTSH     2               0.0000000000
     12345       676  HPTSH     DO1            26.7084493689       22.5336638487       29.9782489079  HPTSH     2               0.0000000000
     12346       676  HPTSH     O2             28.4838225539       22.5275913704       31.7533693608  HPTSH     2               0.0000000000
     12347       676  HPTSH     DO2            28.4779417668       22.5192812944       31.7567504378  HPTSH     2               0.0000000000
     12348       676  HPTSH     O3             26.1216582544       22.1212667711       32.3339625884  HPTSH     2               0.0000000000
     12349       676  HPTSH     DO3            26.1156508091       22.1061689664       32.3326184086  HPTSH     2               0.0000000000
     12350       676  HPTSH     S2             29.1523875202       27.8647769301       33.0727850595  HPTSH     2               0.0000000000
     12351       676  HPTSH     DS2            29.1263231115       27.8577848183       33.0731380631  HPTSH     2               0.0000000000
     12352       676  HPTSH     O4             30.2811307602       26.9347889735       33.3317908010  HPTSH     2               0.0000000000
     12353       676  HPTSH     DO4            30.2607360627       26.9453591335       33.3368778641  HPTSH     2               0.0000000000
     12354       676  HPTSH     O5             28.5569746966       28.3812687099       34.3531118997  HPTSH     2               0.0000000000
     12355       676  HPTSH     DO5            28.5407568036       28.3930288287       34.3635806890  HPTSH     2               0.0000000000
     12356       676  HPTSH     O6             29.4564318595       28.9712498413       32.0957419393  HPTSH     2               0.0000000000
     12357       676  HPTSH     DO6            29.4497977215       28.9784518765       32.1019025513  HPTSH     2               0.0000000000
     12358       676  HPTSH     C9             26.1943607867       28.8691116013       32.3658034073  HPTSH     2               0.0000000000
     12359       676  HPTSH     DC9            26.1540690039       28.9290283475       32.3765945646  HPTSH     2               0.0000000000
     12360       676  HPTSH     C10            24.9618902737       29.4557018729       32.1264936965  HPTSH     2               0.0000000000
     12361       676  HPTSH     DC10           24.8525994531       29.4615398562       32.1058508954  HPTSH     2               0.0000000000
     12362       676  HPTSH     C11            23.8886412323       28.7064455978       31.6645070484  HPTSH     2               0.0000000000
     12363       676  HPTSH     DC11           23.8275519661       28.6622302778       31.6454024367  HPTSH     2               0.0000000000
     12364       676  HPTSH     C12            22.6268133155       29.2776443135       31.4163829208  HPTSH     2               0.0000000000
     12365       676  HPTSH     DC12           22.5419087790       29.2909543183       31.4053892361  HPTSH     2               0.0000000000
     12366       676  HPTSH     C13            21.5812118514       28.4808969288       30.9286531313  HPTSH     2               0.0000000000
     12367       676  HPTSH     DC13           21.5066685072       28.3354229627       30.8818297365  HPTSH     2               0.0000000000
     12368       676  HPTSH     C14            21.7824479680       27.1410108888       30.6915756190  HPTSH     2               0.0000000000
     12369       676  HPTSH     DC14           21.8195297287       27.0928659395       30.6943331108  HPTSH     2               0.0000000000
     12370       676  HPTSH     C15            23.0280016604       26.5419749161       30.9410199569  HPTSH     2               0.0000000000
     12371       676  HPTSH     DC15           23.0037002675       26.4530887460       30.9188697172  HPTSH     2               0.0000000000
     12372       676  HPTSH     C16            24.0956600242       27.3166263585       31.4344247456  HPTSH     2               0.0000000000
     12373       676  HPTSH     DC16           24.0243126064       27.3286114201       31.4244493329  HPTSH     2               0.0000000000
     12374       676  HPTSH     O7             20.6766105123       26.4523189411       30.2012850802  HPTSH     2               0.0000000000
     12375       676  HPTSH     DO7            20.6536766655       26.4414068780       30.1909443055  HPTSH     2               0.0000000000
     12376       676  HPTSH     S3             22.2596720315       31.0712674790       31.6928411000  HPTSH     2               0.0000000000
     12377       676  HPTSH     DS3            22.2536566033       31.0670885036       31.7042748341  HPTSH     2               0.0000000000
     12378       676  HPTSH     O8             20.8030782628       31.2645177383       31.3628989378  HPTSH     2               0.0000000000
     12379       676  HPTSH     DO8            20.7990904864       31.2552465142       31.3703729746  HPTSH     2               0.0000000000
     12380       676  HPTSH     O9             22.4779184604       31.3094226691       33.1598200373  HPTSH     2               0.0000000000
     12381       676  HPTSH     DO9            22.4750445386       31.3114525160       33.1805288725  HPTSH     2               0.0000000000
     12382       676  HPTSH     O10            23.1469629125       31.8998138812       30.8257828526  HPTSH     2               0.0000000000
     12383       676  HPTSH     DO10           23.1374164324       31.9043739337       30.8390053292  HPTSH     2               0.0000000000
     12384       676  HPTSH     H1             22.3885634936       24.6079953229       30.3311547397  HPTSH     2               0.0000000000
     12385       676  HPTSH     H2             24.5684158757       23.5347504555       30.7623055537  HPTSH     2               0.0000000000
     12386       676  HPTSH     H3             28.8267662975       25.1105923299       32.2941681990  HPTSH     2               0.0000000000
     12387       676  HPTSH     H4             27.0121251425       29.4823533258       32.7145096529  HPTSH     2               0.0000000000
     12388       676  HPTSH     H5             24.8651531150       30.5172510865       32.3001461925  HPTSH     2               0.0000000000
     12389       676  HPTSH     H6             20.6322030836       28.9503609456       30.7156134740  HPTSH     2               0.0000000000
     12390       676  HPTSH     H7             20.0357292481       27.1804422085       30.2040622492  HPTSH     2               0.0000000000
     12391       676  HPTSH     LPO11          26.6185206861       22.8343373421       29.8137732042  HPTSH     2               0.0000000000
     12392       676  HPTSH     LPO12          26.7679644967       22.2027800742       29.9209312806  HPTSH     2               0.0000000000
     12393       676  HPTSH     LPO21          28.6545444843       22.8154406851       31.8558232260  HPTSH     2               0.0000000000
     12394       676  HPTSH     LPO22          28.5400688482       22.1856105387       31.7045281370  HPTSH     2               0.0000000000
     12395       676  HPTSH     LPO31          25.9314259885       22.3478316943       32.5209920528  HPTSH     2               0.0000000000
     12396       676  HPTSH     LPO32          26.1632988075       21.7762291809       32.2925485129  HPTSH     2               0.0000000000
     12397       676  HPTSH     LPO41          30.1887963033       26.6079683344       33.2471585497  HPTSH     2               0.0000000000
     12398       676  HPTSH     LPO42          30.5554101148       27.1117025675       33.4581728245  HPTSH     2               0.0000000000
     12399       676  HPTSH     LPO51          28.2252534597       28.2736672035       34.3828261517  HPTSH     2               0.0000000000
     12400       676  HPTSH     LPO52          28.7938837782       28.5711151678       34.5272739203  HPTSH     2               0.0000000000
     12401       676  HPTSH     LPO61          29.2310274244       28.9600115517       31.8282227035  HPTSH     2               0.0000000000
     12402       676  HPTSH     LPO62          29.7301361370       29.1582600836       32.2080501659  HPTSH     2               0.0000000000
     12403       676  HPTSH     LPO71          20.7286882907       26.4225325959       29.8564653032  HPTSH     2               0.0000000000
     12404       676  HPTSH     LPO72          20.5536555195       26.2661281305       30.4709423660  HPTSH     2               0.0000000000
     12405       676  HPTSH     LPO81          20.6612947245       30.9601321578       31.2641728184  HPTSH     2               0.0000000000
     12406       676  HPTSH     LPO82          20.7132936561       31.5996260948       31.4091711087  HPTSH     2               0.0000000000
     12407       676  HPTSH     LPO91          22.5764844411       31.0121125077       33.3159975497  HPTSH     2               0.0000000000
     12408       676  HPTSH     LPO92          22.4141374051       31.6446908881       33.2374550699  HPTSH     2               0.0000000000
     12409       676  HPTSH     LPO101         23.3564811512       31.6929493351       30.6365497498  HPTSH     2               0.0000000000
     12410       676  HPTSH     LPO102         23.0798399801       32.2396462300       30.8758676475  HPTSH     2               0.0000000000
     12411       677  HPTSH     C1             -1.4189913783        6.5073727469       35.7140452979  HPTSH     3               0.0000000000
     12412       677  HPTSH     DC1            -1.4217228343        6.4257617170       35.6847310498  HPTSH     3               0.0000000000
     12413       677  HPTSH     C2             -0.9391923515        5.1972199184       35.6803385396  HPTSH     3               0.0000000000
     12414       677  HPTSH     DC2            -0.8547943332        5.1362881630       35.6559331432  HPTSH     3               0.0000000000
     12415       677  HPTSH     C3              0.4297814651        4.9222442764       35.7381754296  HPTSH     3               0.0000000000
     12416       677  HPTSH     DC3             0.5162053626        5.0117389398       35.7040304324  HPTSH     3               0.0000000000
     12417       677  HPTSH     C4              1.3443911996        5.9935333498       35.8041066774  HPTSH     3               0.0000000000
     12418       677  HPTSH     DC4             1.3841555517        6.0350942387       35.7574793241  HPTSH     3               0.0000000000
     12419       677  HPTSH     C5              2.7519478740        5.7580934058       35.7949887348  HPTSH     3               0.0000000000
     12420       677  HPTSH     DC5             2.7520452158        5.8216384600       35.7615968321  HPTSH     3               0.0000000000
     12421       677  HPTSH     C6              3.2720614242        4.4465318056       35.7463118439  HPTSH     3               0.0000000000
     12422       677  HPTSH     DC6             3.3058510904        4.4781783664       35.7234262071  HPTSH     3               0.0000000000
     12423       677  HPTSH     C7              2.3362168681        3.3998764173       35.6832413901  HPTSH     3               0.0000000000
     12424       677  HPTSH     DC7             2.3606698555        3.4561105976       35.6661931269  HPTSH     3               0.0000000000
     12425       677  HPTSH     C8              0.9416322303        3.6106690840       35.6748670134  HPTSH     3               0.0000000000
     12426       677  HPTSH     DC8             0.9562202118        3.6117364658       35.6592589738  HPTSH     3               0.0000000000
     12427       677  HPTSH     S1             -0.1827524392        2.1368062904       35.6254061466  HPTSH     3               0.0000000000
     12428       677  HPTSH     DS1            -0.1489407782        2.1329526368       35.6264851512  HPTSH     3               0.0000000000
     12429       677  HPTSH     O1             -0.9368957859        2.1620179218       34.3410303549  HPTSH     3               0.0000000000
     12430       677  HPTSH     DO1            -0.9103199789        2.1527202333       34.3592607900  HPTSH     3               0.0000000000
     12431       677  HPTSH     O2              0.7328414780        0.9353298739       35.6748611395  HPTSH     3               0.0000000000
     12432       677  HPTSH     DO2             0.7533066462        0.9226495542       35.6697750498  HPTSH     3               0.0000000000
     12433       677  HPTSH     O3             -1.0077867806        2.2328762659       36.8591901971  HPTSH     3               0.0000000000
     12434       677  HPTSH     DO3            -1.0014958658        2.2261869547       36.8585861799  HPTSH     3               0.0000000000
     12435       677  HPTSH     S2              5.0976529096        4.0848941104       35.7801966152  HPTSH     3               0.0000000000
     12436       677  HPTSH     DS2             5.1064436426        4.0626276427       35.7584400010  HPTSH     3               0.0000000000
     12437       677  HPTSH     O4              5.3163140107        2.5954203209       35.6796641280  HPTSH     3               0.0000000000
     12438       677  HPTSH     DO4             5.3218868707        2.5783719075       35.6588008966  HPTSH     3               0.0000000000
     12439       677  HPTSH     O5              5.6362559475        4.6417233481       37.0533089271  HPTSH     3               0.0000000000
     12440       677  HPTSH     DO5             5.6504588788        4.6321121630       37.0422044915  HPTSH     3               0.0000000000
     12441       677  HPTSH     O6              5.7084203102        4.7508544445       34.5716650831  HPTSH     3               0.0000000000
     12442       677  HPTSH     DO6             5.7173703844        4.7473636281       34.5579936551  HPTSH     3               0.0000000000
     12443       677  HPTSH     C9              3.6058840975        6.8452152403       35.7455738180  HPTSH     3               0.0000000000
     12444       677  HPTSH     DC9             3.6316979063        6.8879625926       35.7075938470  HPTSH     3               0.0000000000
     12445       677  HPTSH     C10             3.1169008525        8.1167822749       35.5507203688  HPTSH     3               0.0000000000
     12446       677  HPTSH     DC10            3.0669389564        8.1846172414       35.5157308793  HPTSH     3               0.0000000000
     12447       677  HPTSH     C11             1.7457171720        8.3859704908       35.4871915897  HPTSH     3               0.0000000000
     12448       677  HPTSH     DC11            1.6803285248        8.3828681135       35.4156559414  HPTSH     3               0.0000000000
     12449       677  HPTSH     C12             1.2299320909        9.6830313822       35.3207374568  HPTSH     3               0.0000000000
     12450       677  HPTSH     DC12            1.1953341610        9.7495852388       35.3272454308  HPTSH     3               0.0000000000
     12451       677  HPTSH     C13            -0.1417254577        9.9417089614       35.4832928606  HPTSH     3               0.0000000000
     12452       677  HPTSH     DC13           -0.2991705580        9.9215761401       35.4501253947  HPTSH     3               0.0000000000
     12453       677  HPTSH     C14            -0.9996260515        8.8965999581       35.6876721325  HPTSH     3               0.0000000000
     12454       677  HPTSH     DC14           -0.9826798086        8.8533865979       35.6889290734  HPTSH     3               0.0000000000
     12455       677  HPTSH     C15            -0.5368797092        7.5750204862       35.7412977570  HPTSH     3               0.0000000000
     12456       677  HPTSH     DC15           -0.6081187343        7.5442697022       35.7037739817  HPTSH     3               0.0000000000
     12457       677  HPTSH     C16             0.8547478988        7.3173807285       35.7330265374  HPTSH     3               0.0000000000
     12458       677  HPTSH     DC16            0.8228038732        7.3775346761       35.6994098724  HPTSH     3               0.0000000000
     12459       677  HPTSH     O7             -2.3202962747        9.2692742387       35.7779544579  HPTSH     3               0.0000000000
     12460       677  HPTSH     DO7            -2.3365694261        9.2837583720       35.7754732389  HPTSH     3               0.0000000000
     12461       677  HPTSH     S3              2.3107917801       10.9853322675       35.8952096100  HPTSH     3               0.0000000000
     12462       677  HPTSH     DS3             2.3121572521       11.0099644792       35.8843384705  HPTSH     3               0.0000000000
     12463       677  HPTSH     O8              1.5224150667       12.2778321184       35.9810336920  HPTSH     3               0.0000000000
     12464       677  HPTSH     DO8             1.5168199058       12.2986878848       35.9828751644  HPTSH     3               0.0000000000
     12465       677  HPTSH     O9              2.6542911261       10.4072335864       37.2083096947  HPTSH     3               0.0000000000
     12466       677  HPTSH     DO9             2.6560041852       10.4268143166       37.2083550655  HPTSH     3               0.0000000000
     12467       677  HPTSH     O10             3.5177689849       11.1661568990       35.0140713880  HPTSH     3               0.0000000000
     12468       677  HPTSH     DO10            3.5331723078       11.1737260591       35.0111174039  HPTSH     3               0.0000000000
     12469       677  HPTSH     H1             -2.4778204663        6.7083945578       35.6442513589  HPTSH     3               0.0000000000
     12470       677  HPTSH     H2             -1.6620744657        4.4001751484       35.5878124153  HPTSH     3               0.0000000000
     12471       677  HPTSH     H3              2.6727814372        2.3743552668       35.6454173138  HPTSH     3               0.0000000000
     12472       677  HPTSH     H4              4.6756514252        6.6973893498       35.7576307937  HPTSH     3               0.0000000000
     12473       677  HPTSH     H5              3.8538420199        8.9040514359       35.4913487931  HPTSH     3               0.0000000000
     12474       677  HPTSH     H6             -0.4982480332       10.9595531285       35.4259787730  HPTSH     3               0.0000000000
     12475       677  HPTSH     H7             -2.2363879305       10.1843695539       35.4673744283  HPTSH     3               0.0000000000
     12476       677  HPTSH     LPO11          -0.8428337150        2.4414624250       34.1524485518  HPTSH     3               0.0000000000
     12477       677  HPTSH     LPO12          -1.1521643970        1.8866254528       34.3231862221  HPTSH     3               0.0000000000
     12478       677  HPTSH     LPO21           1.0665374817        1.0396970829       35.6908130310  HPTSH     3               0.0000000000
     12479       677  HPTSH     LPO22           0.5441814403        0.6406410723       35.6667432370  HPTSH     3               0.0000000000
     12480       677  HPTSH     LPO31          -0.9172130789        2.5173195480       37.0419151921  HPTSH     3               0.0000000000
     12481       677  HPTSH     LPO32          -1.2311659688        1.9638973338       36.8750669847  HPTSH     3               0.0000000000
     12482       677  HPTSH     LPO41           5.0084210018        2.4304494848       35.6576069677  HPTSH     3               0.0000000000
     12483       677  HPTSH     LPO42           5.6589040288        2.5240423706       35.6857688549  HPTSH     3               0.0000000000
     12484       677  HPTSH     LPO51           5.3786882404        4.7916592983       37.2368248313  HPTSH     3               0.0000000000
     12485       677  HPTSH     LPO52           5.9803498227        4.5812415912       37.0743175469  HPTSH     3               0.0000000000
     12486       677  HPTSH     LPO61           5.4604482348        4.9156821027       34.3877039652  HPTSH     3               0.0000000000
     12487       677  HPTSH     LPO62           6.0532950288        4.6916861856       34.5638839769  HPTSH     3               0.0000000000
     12488       677  HPTSH     LPO71          -2.4776853757        9.1271788322       35.4994987768  HPTSH     3               0.0000000000
     12489       677  HPTSH     LPO72          -2.3787281175        9.3280237774       36.1180047651  HPTSH     3               0.0000000000
     12490       677  HPTSH     LPO81           1.1911399717       12.2227580861       35.8824250595  HPTSH     3               0.0000000000
     12491       677  HPTSH     LPO82           1.7292184585       12.5369705974       36.0931925340  HPTSH     3               0.0000000000
     12492       677  HPTSH     LPO91           2.4921801876       10.0998375341       37.2498754332  HPTSH     3               0.0000000000
     12493       677  HPTSH     LPO92           2.8721468328       10.6208129333       37.3798403148  HPTSH     3               0.0000000000
     12494       677  HPTSH     LPO101          3.5080802613       10.9373981294       34.7493535118  HPTSH     3               0.0000000000
     12495       677  HPTSH     LPO102          3.7194256898       11.4236755651       35.1386455025  HPTSH     3               0.0000000000
     12496       678  HPTSH     C1            -19.7980489025      -25.2870890929       13.9195044017  HPTSH     4               0.0000000000
     12497       678  HPTSH     DC1           -19.7490581434      -25.2971229529       13.9994714223  HPTSH     4               0.0000000000
     12498       678  HPTSH     C2            -19.1633249278      -24.5999895594       14.9495303376  HPTSH     4               0.0000000000
     12499       678  HPTSH     DC2           -19.1308490497      -24.5306118742       14.9966622163  HPTSH     4               0.0000000000
     12500       678  HPTSH     C3            -19.2172793288      -23.2066737767       15.0278898070  HPTSH     4               0.0000000000
     12501       678  HPTSH     DC3           -19.2817218086      -23.1541798281       14.9498384681  HPTSH     4               0.0000000000
     12502       678  HPTSH     C4            -19.9697370528      -22.5013153368       14.0691467604  HPTSH     4               0.0000000000
     12503       678  HPTSH     DC4           -19.9982320784      -22.4653914593       14.0345751266  HPTSH     4               0.0000000000
     12504       678  HPTSH     C5            -20.0873973680      -21.0888067638       14.1364887942  HPTSH     4               0.0000000000
     12505       678  HPTSH     DC5           -20.1338831404      -21.0981158003       14.0764910031  HPTSH     4               0.0000000000
     12506       678  HPTSH     C6            -19.3833017229      -20.3402086184       15.1062728059  HPTSH     4               0.0000000000
     12507       678  HPTSH     DC6           -19.4128821140      -20.3183444899       15.0710762731  HPTSH     4               0.0000000000
     12508       678  HPTSH     C7            -18.6113732150      -21.0711561119       16.0383063969  HPTSH     4               0.0000000000
     12509       678  HPTSH     DC7           -18.6481404170      -21.0646166289       15.9821015933  HPTSH     4               0.0000000000
     12510       678  HPTSH     C8            -18.5502219700      -22.4842600482       16.0322375016  HPTSH     4               0.0000000000
     12511       678  HPTSH     DC8           -18.5467482267      -22.4816547019       16.0236978280  HPTSH     4               0.0000000000
     12512       678  HPTSH     S1            -17.5243181147      -23.3644840958       17.2969930824  HPTSH     4               0.0000000000
     12513       678  HPTSH     DS1           -17.5276102380      -23.3513873778       17.2837000837  HPTSH     4               0.0000000000
     12514       678  HPTSH     O1            -16.4377991440      -23.9908785110       16.4560963893  HPTSH     4               0.0000000000
     12515       678  HPTSH     DO1           -16.4357514817      -23.9892966520       16.4444361532  HPTSH     4               0.0000000000
     12516       678  HPTSH     O2            -17.0291285755      -22.2631970929       18.1900524716  HPTSH     4               0.0000000000
     12517       678  HPTSH     DO2           -17.0402283693      -22.2559627151       18.1767552291  HPTSH     4               0.0000000000
     12518       678  HPTSH     O3            -18.4098612538      -24.3520396697       18.0106336261  HPTSH     4               0.0000000000
     12519       678  HPTSH     DO3           -18.4027798540      -24.3534094740       18.0075789688  HPTSH     4               0.0000000000
     12520       678  HPTSH     S2            -19.5270547056      -18.4634266167       15.2468171479  HPTSH     4               0.0000000000
     12521       678  HPTSH     DS2           -19.5110443406      -18.4552807070       15.2399156265  HPTSH     4               0.0000000000
     12522       678  HPTSH     O4            -18.7734997097      -17.9723753902       16.4549688293  HPTSH     4               0.0000000000
     12523       678  HPTSH     DO4           -18.7733563105      -17.9566270036       16.4489178752  HPTSH     4               0.0000000000
     12524       678  HPTSH     O5            -20.9770640576      -18.1080601907       15.3497761780  HPTSH     4               0.0000000000
     12525       678  HPTSH     DO5           -20.9637108203      -18.1034213971       15.3464489455  HPTSH     4               0.0000000000
     12526       678  HPTSH     O6            -18.9613449940      -17.9076064522       13.9545486291  HPTSH     4               0.0000000000
     12527       678  HPTSH     DO6           -18.9480578099      -17.8949868150       13.9238954383  HPTSH     4               0.0000000000
     12528       678  HPTSH     C9            -20.9274193614      -20.4612430924       13.2312413473  HPTSH     4               0.0000000000
     12529       678  HPTSH     DC9           -20.9437095424      -20.4334202867       13.1756692729  HPTSH     4               0.0000000000
     12530       678  HPTSH     C10           -21.5593140285      -21.1471436620       12.2052204948  HPTSH     4               0.0000000000
     12531       678  HPTSH     DC10          -21.5740113843      -21.2004798891       12.1443988520  HPTSH     4               0.0000000000
     12532       678  HPTSH     C11           -21.3967178682      -22.5176392023       12.0539358218  HPTSH     4               0.0000000000
     12533       678  HPTSH     DC11          -21.3872707353      -22.5681092311       12.0507467233  HPTSH     4               0.0000000000
     12534       678  HPTSH     C12           -21.9936522564      -23.2141061021       10.9840858722  HPTSH     4               0.0000000000
     12535       678  HPTSH     DC12          -22.0145902004      -23.2559157546       10.9311040131  HPTSH     4               0.0000000000
     12536       678  HPTSH     C13           -21.8071762136      -24.6126987646       10.9033132701  HPTSH     4               0.0000000000
     12537       678  HPTSH     DC13          -21.7640776860      -24.7486377085       10.9372478774  HPTSH     4               0.0000000000
     12538       678  HPTSH     C14           -21.0980184116      -25.2943591365       11.8775679418  HPTSH     4               0.0000000000
     12539       678  HPTSH     DC14          -21.0706396545      -25.2823565825       11.9165534042  HPTSH     4               0.0000000000
     12540       678  HPTSH     C15           -20.5050660490      -24.6059142006       12.9430165976  HPTSH     4               0.0000000000
     12541       678  HPTSH     DC15          -20.4705545431      -24.6770269524       12.9863745522  HPTSH     4               0.0000000000
     12542       678  HPTSH     C16           -20.6212139166      -23.2052771458       13.0255044354  HPTSH     4               0.0000000000
     12543       678  HPTSH     DC16          -20.6489641994      -23.2461634583       12.9800381298  HPTSH     4               0.0000000000
     12544       678  HPTSH     O7            -21.0496965994      -26.6847041332       11.7446155317  HPTSH     4               0.0000000000
     12545       678  HPTSH     DO7           -21.0534573817      -26.7063793774       11.7335105589  HPTSH     4               0.0000000000
     12546       678  HPTSH     S3            -23.0163890628      -22.3632477598        9.6661876485  HPTSH     4               0.0000000000
     12547       678  HPTSH     DS3           -23.0109069641      -22.3727045694        9.6543199672  HPTSH     4               0.0000000000
     12548       678  HPTSH     O8            -23.5153661264      -23.4645124053        8.7596891257  HPTSH     4               0.0000000000
     12549       678  HPTSH     DO8           -23.5172538828      -23.4799024953        8.7531593666  HPTSH     4               0.0000000000
     12550       678  HPTSH     O9            -24.1648823027      -21.6456906359       10.3019879162  HPTSH     4               0.0000000000
     12551       678  HPTSH     DO9           -24.1560018633      -21.6502556419       10.2926096857  HPTSH     4               0.0000000000
     12552       678  HPTSH     O10           -22.0962737259      -21.4366647107        8.9125210056  HPTSH     4               0.0000000000
     12553       678  HPTSH     DO10          -22.0886105700      -21.4285133811        8.9035070051  HPTSH     4               0.0000000000
     12554       678  HPTSH     H1            -19.7084627351      -26.3607171559       13.8440252595  HPTSH     4               0.0000000000
     12555       678  HPTSH     H2            -18.5860082856      -25.1679974880       15.6640039114  HPTSH     4               0.0000000000
     12556       678  HPTSH     H3            -18.1089126177      -20.5642287628       16.8488358603  HPTSH     4               0.0000000000
     12557       678  HPTSH     H4            -21.0679312761      -19.3930820528       13.3066627981  HPTSH     4               0.0000000000
     12558       678  HPTSH     H5            -22.1786690959      -20.5846355454       11.5222974251  HPTSH     4               0.0000000000
     12559       678  HPTSH     H6            -22.3045986096      -25.1523920320       10.1110367168  HPTSH     4               0.0000000000
     12560       678  HPTSH     H7            -21.6311142876      -26.8081767262       10.9780596038  HPTSH     4               0.0000000000
     12561       678  HPTSH     LPO11         -16.4860789096      -23.9105039196       16.1188887540  HPTSH     4               0.0000000000
     12562       678  HPTSH     LPO12         -16.2172454532      -24.1705715935       16.6599749452  HPTSH     4               0.0000000000
     12563       678  HPTSH     LPO21         -17.1505831214      -21.9546038051       18.0781642415  HPTSH     4               0.0000000000
     12564       678  HPTSH     LPO22         -16.8287353125      -22.3962329901       18.4443042960  HPTSH     4               0.0000000000
     12565       678  HPTSH     LPO31         -18.7348952654      -24.3362768973       17.8817754627  HPTSH     4               0.0000000000
     12566       678  HPTSH     LPO32         -18.2255834361      -24.5247734102       18.2529242384  HPTSH     4               0.0000000000
     12567       678  HPTSH     LPO41         -18.6262750292      -18.2423539720       16.6221108612  HPTSH     4               0.0000000000
     12568       678  HPTSH     LPO42         -18.8009441854      -17.6243424967       16.4798667371  HPTSH     4               0.0000000000
     12569       678  HPTSH     LPO51         -21.1724460126      -18.3982752312       15.3397202354  HPTSH     4               0.0000000000
     12570       678  HPTSH     LPO52         -21.0136636454      -17.7609914123       15.3763041487  HPTSH     4               0.0000000000
     12571       678  HPTSH     LPO61         -18.8558764421      -18.1694572460       13.7476415331  HPTSH     4               0.0000000000
     12572       678  HPTSH     LPO62         -18.9774868454      -17.5579905374       13.9574039288  HPTSH     4               0.0000000000
     12573       678  HPTSH     LPO71         -20.7421923037      -26.7543272529       11.5926493206  HPTSH     4               0.0000000000
     12574       678  HPTSH     LPO72         -21.2599408218      -26.8107430339       11.9944385940  HPTSH     4               0.0000000000
     12575       678  HPTSH     LPO81         -23.3988888301      -23.7745990925        8.8727346292  HPTSH     4               0.0000000000
     12576       678  HPTSH     LPO82         -23.7108984798      -23.3289037568        8.5030232082  HPTSH     4               0.0000000000
     12577       678  HPTSH     LPO91         -24.1566246886      -21.6903893067       10.6490237078  HPTSH     4               0.0000000000
     12578       678  HPTSH     LPO92         -24.3569341713      -21.4861607479       10.0566997293  HPTSH     4               0.0000000000
     12579       678  HPTSH     LPO101        -21.7724662984      -21.4565943650        9.0438661948  HPTSH     4               0.0000000000
     12580       678  HPTSH     LPO102        -22.2739728459      -21.2695997184        8.6614984745  HPTSH     4               0.0000000000
     12581       679  HPTSH     C1              4.0647690142        3.5998822817       23.7209573413  HPTSH     5               0.0000000000
     12582       679  HPTSH     DC1             4.0127246350        3.6455255310       23.7939476466  HPTSH     5               0.0000000000
     12583       679  HPTSH     C2              3.2967696876        4.6012518844       24.3135567243  HPTSH     5               0.0000000000
     12584       679  HPTSH     DC2             3.2317711274        4.6887416295       24.3217994079  HPTSH     5               0.0000000000
     12585       679  HPTSH     C3              2.7911416264        5.6599971104       23.5644858744  HPTSH     5               0.0000000000
     12586       679  HPTSH     DC3             2.7972845665        5.6714220284       23.4662167781  HPTSH     5               0.0000000000
     12587       679  HPTSH     C4              3.0820400935        5.7089490342       22.1757788876  HPTSH     5               0.0000000000
     12588       679  HPTSH     DC4             3.0931425399        5.7139025778       22.1340745202  HPTSH     5               0.0000000000
     12589       679  HPTSH     C5              2.5393371110        6.7364483986       21.3606658138  HPTSH     5               0.0000000000
     12590       679  HPTSH     DC5             2.5683709201        6.7055570096       21.3312544165  HPTSH     5               0.0000000000
     12591       679  HPTSH     C6              1.6880141282        7.7238359463       21.9201407022  HPTSH     5               0.0000000000
     12592       679  HPTSH     DC6             1.6852117956        7.7340014302       21.8878200366  HPTSH     5               0.0000000000
     12593       679  HPTSH     C7              1.4452073959        7.6631328923       23.3120369693  HPTSH     5               0.0000000000
     12594       679  HPTSH     DC7             1.4626024822        7.6419768301       23.2709537271  HPTSH     5               0.0000000000
     12595       679  HPTSH     C8              1.9860716459        6.6630827601       24.1529595853  HPTSH     5               0.0000000000
     12596       679  HPTSH     DC8             1.9781331795        6.6742515730       24.1623856255  HPTSH     5               0.0000000000
     12597       679  HPTSH     S1              1.6645844166        6.7566797299       26.0076237710  HPTSH     5               0.0000000000
     12598       679  HPTSH     DS1             1.6606117437        6.7691275620       26.0031711860  HPTSH     5               0.0000000000
     12599       679  HPTSH     O1              2.9681521530        7.1275449691       26.6554676167  HPTSH     5               0.0000000000
     12600       679  HPTSH     DO1             2.9678576162        7.1352800977       26.6640662659  HPTSH     5               0.0000000000
     12601       679  HPTSH     O2              0.6873111396        7.8832371291       26.1736773826  HPTSH     5               0.0000000000
     12602       679  HPTSH     DO2             0.6898709159        7.8948734245       26.1648753352  HPTSH     5               0.0000000000
     12603       679  HPTSH     O3              1.0937877081        5.4647164735       26.5211778502  HPTSH     5               0.0000000000
     12604       679  HPTSH     DO3             1.0984915133        5.4643749004       26.5228331910  HPTSH     5               0.0000000000
     12605       679  HPTSH     S2              0.9761564203        9.1441923973       20.9251168727  HPTSH     5               0.0000000000
     12606       679  HPTSH     DS2             0.9524898045        9.1501342732       20.9357936761  HPTSH     5               0.0000000000
     12607       679  HPTSH     O4              0.0009260762        9.8945372962       21.8075618275  HPTSH     5               0.0000000000
     12608       679  HPTSH     DO4            -0.0251671635        9.8989689301       21.8149405054  HPTSH     5               0.0000000000
     12609       679  HPTSH     O5              0.2233640318        8.5489701412       19.7725284989  HPTSH     5               0.0000000000
     12610       679  HPTSH     DO5             0.2033248903        8.5509061167       19.7698418804  HPTSH     5               0.0000000000
     12611       679  HPTSH     O6              2.1052455932       10.0125434288       20.4703121877  HPTSH     5               0.0000000000
     12612       679  HPTSH     DO6             2.0931098802       10.0120171925       20.4755429498  HPTSH     5               0.0000000000
     12613       679  HPTSH     C9              2.8594121058        6.7360245501       19.9995828207  HPTSH     5               0.0000000000
     12614       679  HPTSH     DC9             2.8720247801        6.7329845232       19.9648596882  HPTSH     5               0.0000000000
     12615       679  HPTSH     C10             3.7139719541        5.7888252399       19.4363224020  HPTSH     5               0.0000000000
     12616       679  HPTSH     DC10            3.7594289557        5.7194067565       19.4275988349  HPTSH     5               0.0000000000
     12617       679  HPTSH     C11             4.2607153402        4.7657161998       20.2050012877  HPTSH     5               0.0000000000
     12618       679  HPTSH     DC11            4.2820545871        4.7248042275       20.2388309133  HPTSH     5               0.0000000000
     12619       679  HPTSH     C12             5.0544466390        3.7478775991       19.6260134419  HPTSH     5               0.0000000000
     12620       679  HPTSH     DC12            5.0905627082        3.6905849751       19.5980946964  HPTSH     5               0.0000000000
     12621       679  HPTSH     C13             5.5451595520        2.7165893012       20.4534432455  HPTSH     5               0.0000000000
     12622       679  HPTSH     DC13            5.5672225571        2.6454907555       20.5720308439  HPTSH     5               0.0000000000
     12623       679  HPTSH     C14             5.2370122355        2.6842837976       21.7975071717  HPTSH     5               0.0000000000
     12624       679  HPTSH     DC14            5.2055676610        2.7206369081       21.8241854153  HPTSH     5               0.0000000000
     12625       679  HPTSH     C15             4.4036995272        3.6553817572       22.3739461303  HPTSH     5               0.0000000000
     12626       679  HPTSH     DC15            4.4013450211        3.6277183925       22.4569549204  HPTSH     5               0.0000000000
     12627       679  HPTSH     C16             3.9184117607        4.7199511465       21.5873962676  HPTSH     5               0.0000000000
     12628       679  HPTSH     DC16            3.9520147846        4.6714117450       21.5691252176  HPTSH     5               0.0000000000
     12629       679  HPTSH     O7              5.8024602823        1.6388485643       22.5272391831  HPTSH     5               0.0000000000
     12630       679  HPTSH     DO7             5.8149419818        1.6336342729       22.5257491308  HPTSH     5               0.0000000000
     12631       679  HPTSH     S3              5.4505285408        3.6328330564       17.8050247325  HPTSH     5               0.0000000000
     12632       679  HPTSH     DS3             5.4514330900        3.6211063280       17.7988738625  HPTSH     5               0.0000000000
     12633       679  HPTSH     O8              6.3111446099        2.4076439372       17.6288297971  HPTSH     5               0.0000000000
     12634       679  HPTSH     DO8             6.3140732593        2.4002861029       17.6258864733  HPTSH     5               0.0000000000
     12635       679  HPTSH     O9              4.1799968889        3.4349355736       17.0248658395  HPTSH     5               0.0000000000
     12636       679  HPTSH     DO9             4.1762762441        3.4228304572       17.0117411646  HPTSH     5               0.0000000000
     12637       679  HPTSH     O10             6.2076626088        4.8545284473       17.3772659925  HPTSH     5               0.0000000000
     12638       679  HPTSH     DO10            6.2112814795        4.8456110350       17.3675563439  HPTSH     5               0.0000000000
     12639       679  HPTSH     H1              4.4765195901        2.8045098048       24.3244837170  HPTSH     5               0.0000000000
     12640       679  HPTSH     H2              3.1238745469        4.5483579261       25.3783146778  HPTSH     5               0.0000000000
     12641       679  HPTSH     H3              0.8015783870        8.3979863662       23.7726149441  HPTSH     5               0.0000000000
     12642       679  HPTSH     H4              2.4389130281        7.4959821322       19.3576755073  HPTSH     5               0.0000000000
     12643       679  HPTSH     H5              3.9007590625        5.8373128672       18.3737032199  HPTSH     5               0.0000000000
     12644       679  HPTSH     H6              6.1769031251        1.9504872104       20.0287225793  HPTSH     5               0.0000000000
     12645       679  HPTSH     H7              6.3196374200        1.1592029583       21.8613804135  HPTSH     5               0.0000000000
     12646       679  HPTSH     LPO11           3.2166724898        7.1645182620       26.4118067503  HPTSH     5               0.0000000000
     12647       679  HPTSH     LPO12           2.9273921459        7.1496795248       27.0023806941  HPTSH     5               0.0000000000
     12648       679  HPTSH     LPO21           0.6103816343        8.0219414900       25.8616790629  HPTSH     5               0.0000000000
     12649       679  HPTSH     LPO22           0.6083199059        7.9242712983       26.5121690102  HPTSH     5               0.0000000000
     12650       679  HPTSH     LPO31           1.0604690608        5.2357855160       26.2585364893  HPTSH     5               0.0000000000
     12651       679  HPTSH     LPO32           1.0361777779        5.4878361864       26.8656289713  HPTSH     5               0.0000000000
     12652       679  HPTSH     LPO41          -0.0140179481        9.7449620749       22.1236376559  HPTSH     5               0.0000000000
     12653       679  HPTSH     LPO42          -0.1383261344       10.1627515231       21.6310116919  HPTSH     5               0.0000000000
     12654       679  HPTSH     LPO51           0.2426097401        8.1997067171       19.7845561038  HPTSH     5               0.0000000000
     12655       679  HPTSH     LPO52           0.0839507836        8.8032187973       19.5765142975  HPTSH     5               0.0000000000
     12656       679  HPTSH     LPO61           2.4095633660        9.8828592457       20.5846481215  HPTSH     5               0.0000000000
     12657       679  HPTSH     LPO62           1.9817155509       10.2812664197       20.2831537445  HPTSH     5               0.0000000000
     12658       679  HPTSH     LPO71           6.0674766324        1.7821215070       22.7053941664  HPTSH     5               0.0000000000
     12659       679  HPTSH     LPO72           5.5451142021        1.4056713878       22.5708442212  HPTSH     5               0.0000000000
     12660       679  HPTSH     LPO81           6.3625468229        2.2519813975       17.9380659305  HPTSH     5               0.0000000000
     12661       679  HPTSH     LPO82           6.3964142960        2.3687378072       17.2916126657  HPTSH     5               0.0000000000
     12662       679  HPTSH     LPO91           3.9061117307        3.4253145678       17.2425682886  HPTSH     5               0.0000000000
     12663       679  HPTSH     LPO92           4.2516346402        3.4130546073       16.6829751319  HPTSH     5               0.0000000000
     12664       679  HPTSH     LPO101          6.2531127111        5.0688627341       17.6502039007  HPTSH     5               0.0000000000
     12665       679  HPTSH     LPO102          6.2830912883        4.8352415857       17.0360350864  HPTSH     5               0.0000000000
     12666       680  HPTSH     C1            -16.1217336285        8.3986808417      -34.4528432579  HPTSH     6               0.0000000000
     12667       680  HPTSH     DC1           -16.2076250521        8.4622293342      -34.4575927963  HPTSH     6               0.0000000000
     12668       680  HPTSH     C2            -17.4885884126        8.5619106167      -34.6447029004  HPTSH     6               0.0000000000
     12669       680  HPTSH     DC2           -17.5877790284        8.5557743794      -34.6517579699  HPTSH     6               0.0000000000
     12670       680  HPTSH     C3            -18.3157669458        7.4659434203      -34.8747400565  HPTSH     6               0.0000000000
     12671       680  HPTSH     DC3           -18.2777038422        7.3799396213      -34.8713360237  HPTSH     6               0.0000000000
     12672       680  HPTSH     C4            -17.7366015453        6.1707462323      -34.9032373668  HPTSH     6               0.0000000000
     12673       680  HPTSH     DC4           -17.7235811511        6.1338692556      -34.8955133984  HPTSH     6               0.0000000000
     12674       680  HPTSH     C5            -18.5409325590        5.0333434027      -35.1671141012  HPTSH     6               0.0000000000
     12675       680  HPTSH     DC5           -18.4847449712        5.0099218095      -35.1490950106  HPTSH     6               0.0000000000
     12676       680  HPTSH     C6            -19.9383448349        5.1806050263      -35.3854202061  HPTSH     6               0.0000000000
     12677       680  HPTSH     DC6           -19.9296476693        5.1566084258      -35.3802416903  HPTSH     6               0.0000000000
     12678       680  HPTSH     C7            -20.4658322185        6.4839690024      -35.3894502782  HPTSH     6               0.0000000000
     12679       680  HPTSH     DC7           -20.4102220985        6.4739875831      -35.3717234878  HPTSH     6               0.0000000000
     12680       680  HPTSH     C8            -19.6986413912        7.6293806964      -35.1037957279  HPTSH     6               0.0000000000
     12681       680  HPTSH     DC8           -19.7072959030        7.6576324330      -35.0946936156  HPTSH     6               0.0000000000
     12682       680  HPTSH     S1            -20.5612785010        9.2890001107      -35.0432102963  HPTSH     6               0.0000000000
     12683       680  HPTSH     DS1           -20.5796051062        9.2931561051      -35.0396916888  HPTSH     6               0.0000000000
     12684       680  HPTSH     O1            -19.9755624676       10.1966058738      -36.0913710221  HPTSH     6               0.0000000000
     12685       680  HPTSH     DO1           -19.9820412393       10.2113395281      -36.0867035936  HPTSH     6               0.0000000000
     12686       680  HPTSH     O2            -22.0310301162        9.0679100567      -35.3120420590  HPTSH     6               0.0000000000
     12687       680  HPTSH     DO2           -22.0460108678        9.0700815003      -35.3120634329  HPTSH     6               0.0000000000
     12688       680  HPTSH     O3            -20.4005553090        9.8773470245      -33.6624165445  HPTSH     6               0.0000000000
     12689       680  HPTSH     DO3           -20.4041264948        9.8969123391      -33.6546207426  HPTSH     6               0.0000000000
     12690       680  HPTSH     S2            -21.1990134469        3.8542955977      -35.7863067700  HPTSH     6               0.0000000000
     12691       680  HPTSH     DS2           -21.2132697783        3.8633949811      -35.7727672722  HPTSH     6               0.0000000000
     12692       680  HPTSH     O4            -22.6025474824        4.3824860236      -35.8787536036  HPTSH     6               0.0000000000
     12693       680  HPTSH     DO4           -22.6115891730        4.3842347939      -35.8809738907  HPTSH     6               0.0000000000
     12694       680  HPTSH     O5            -21.1377938861        2.7656213966      -34.7475827913  HPTSH     6               0.0000000000
     12695       680  HPTSH     DO5           -21.1531002389        2.7639142776      -34.7414748518  HPTSH     6               0.0000000000
     12696       680  HPTSH     O6            -20.7920188127        3.4363087851      -37.1188973317  HPTSH     6               0.0000000000
     12697       680  HPTSH     DO6           -20.8016486647        3.4321686311      -37.1028905977  HPTSH     6               0.0000000000
     12698       680  HPTSH     C9            -17.9113895201        3.7930447264      -35.2078296130  HPTSH     6               0.0000000000
     12699       680  HPTSH     DC9           -17.8761050853        3.7617424843      -35.2049119831  HPTSH     6               0.0000000000
     12700       680  HPTSH     C10           -16.5433823032        3.6324749680      -34.9714485451  HPTSH     6               0.0000000000
     12701       680  HPTSH     DC10          -16.4463756076        3.6660995808      -34.9460359269  HPTSH     6               0.0000000000
     12702       680  HPTSH     C11           -15.7325131693        4.7233046557      -34.6984808782  HPTSH     6               0.0000000000
     12703       680  HPTSH     DC11          -15.6929802599        4.7873944725      -34.6785201802  HPTSH     6               0.0000000000
     12704       680  HPTSH     C12           -14.3474980507        4.5947235280      -34.4690464541  HPTSH     6               0.0000000000
     12705       680  HPTSH     DC12          -14.2668094703        4.6095662560      -34.4496834102  HPTSH     6               0.0000000000
     12706       680  HPTSH     C13           -13.5831830346        5.7378896300      -34.1872727601  HPTSH     6               0.0000000000
     12707       680  HPTSH     DC13          -13.5597001858        5.9053671377      -34.1636744193  HPTSH     6               0.0000000000
     12708       680  HPTSH     C14           -14.1726272694        6.9773806277      -34.1593511679  HPTSH     6               0.0000000000
     12709       680  HPTSH     DC14          -14.2369449107        7.0032366461      -34.1681788926  HPTSH     6               0.0000000000
     12710       680  HPTSH     C15           -15.5456808398        7.1369012434      -34.4172645245  HPTSH     6               0.0000000000
     12711       680  HPTSH     DC15          -15.5576853359        7.2338826132      -34.4102469502  HPTSH     6               0.0000000000
     12712       680  HPTSH     C16           -16.3440245896        6.0087460311      -34.6701230980  HPTSH     6               0.0000000000
     12713       680  HPTSH     DC16          -16.2828713107        6.0232599329      -34.6531242750  HPTSH     6               0.0000000000
     12714       680  HPTSH     O7            -13.2918290571        8.0452713156      -33.9659868029  HPTSH     6               0.0000000000
     12715       680  HPTSH     DO7           -13.2727018673        8.0584981261      -33.9618116343  HPTSH     6               0.0000000000
     12716       680  HPTSH     S3            -13.4485253251        2.9682385743      -34.5224084999  HPTSH     6               0.0000000000
     12717       680  HPTSH     DS3           -13.4469588408        2.9721858212      -34.5166729149  HPTSH     6               0.0000000000
     12718       680  HPTSH     O8            -12.0051842702        3.3132297642      -34.3183000924  HPTSH     6               0.0000000000
     12719       680  HPTSH     DO8           -12.0099622657        3.3197945036      -34.3098842995  HPTSH     6               0.0000000000
     12720       680  HPTSH     O9            -13.9443053381        2.1225123266      -33.3840327707  HPTSH     6               0.0000000000
     12721       680  HPTSH     DO9           -13.9358983456        2.1149645462      -33.3813685971  HPTSH     6               0.0000000000
     12722       680  HPTSH     O10           -13.6505987337        2.3240668549      -35.8566768768  HPTSH     6               0.0000000000
     12723       680  HPTSH     DO10          -13.6503966891        2.3208667224      -35.8510377972  HPTSH     6               0.0000000000
     12724       680  HPTSH     H1            -15.4864960225        9.2526867926      -34.2696848026  HPTSH     6               0.0000000000
     12725       680  HPTSH     H2            -17.9048351976        9.5583872424      -34.6315519177  HPTSH     6               0.0000000000
     12726       680  HPTSH     H3            -21.5234620400        6.6024668884      -35.5732365988  HPTSH     6               0.0000000000
     12727       680  HPTSH     H4            -18.5181578459        2.9255676731      -35.4216420559  HPTSH     6               0.0000000000
     12728       680  HPTSH     H5            -16.1331453785        2.6339929548      -35.0052025793  HPTSH     6               0.0000000000
     12729       680  HPTSH     H6            -12.5175486411        5.6332542031      -34.0462948653  HPTSH     6               0.0000000000
     12730       680  HPTSH     H7            -12.4596264738        7.5542786695      -33.8807513536  HPTSH     6               0.0000000000
     12731       680  HPTSH     LPO11         -19.7230327493       10.0294827626      -36.2668663414  HPTSH     6               0.0000000000
     12732       680  HPTSH     LPO12         -20.1349257747       10.5080965059      -36.0826004766  HPTSH     6               0.0000000000
     12733       680  HPTSH     LPO21         -22.0933536825        8.7274225126      -35.3638494461  HPTSH     6               0.0000000000
     12734       680  HPTSH     LPO22         -22.2016767961        9.3733526288      -35.3028471795  HPTSH     6               0.0000000000
     12735       680  HPTSH     LPO31         -20.2153486049        9.6596898546      -33.4603674584  HPTSH     6               0.0000000000
     12736       680  HPTSH     LPO32         -20.5602704439       10.1883192028      -33.6454642596  HPTSH     6               0.0000000000
     12737       680  HPTSH     LPO41         -22.6049528819        4.7272040707      -35.8182252460  HPTSH     6               0.0000000000
     12738       680  HPTSH     LPO42         -22.8237898825        4.1219331079      -35.9540130117  HPTSH     6               0.0000000000
     12739       680  HPTSH     LPO51         -20.8930650418        2.8413360369      -34.5090978106  HPTSH     6               0.0000000000
     12740       680  HPTSH     LPO52         -21.3727901650        2.5168314738      -34.8209334776  HPTSH     6               0.0000000000
     12741       680  HPTSH     LPO61         -20.5121988362        3.6197308878      -37.2216451444  HPTSH     6               0.0000000000
     12742       680  HPTSH     LPO62         -21.0048557808        3.1840945859      -37.2354667219  HPTSH     6               0.0000000000
     12743       680  HPTSH     LPO71         -13.2423609162        8.1857513154      -34.2827174024  HPTSH     6               0.0000000000
     12744       680  HPTSH     LPO72         -13.3338553436        8.1435161369      -33.6326975196  HPTSH     6               0.0000000000
     12745       680  HPTSH     LPO81         -11.9690547788        3.6592599831      -34.2801196339  HPTSH     6               0.0000000000
     12746       680  HPTSH     LPO82         -11.8106306904        3.0223380219      -34.3238587710  HPTSH     6               0.0000000000
     12747       680  HPTSH     LPO91         -14.1866888555        2.2972633883      -33.2017903581  HPTSH     6               0.0000000000
     12748       680  HPTSH     LPO92         -13.7809310398        1.8129834025      -33.3848596864  HPTSH     6               0.0000000000
     12749       680  HPTSH     LPO101        -13.8516130607        2.5273872647      -36.0585532035  HPTSH     6               0.0000000000
     12750       680  HPTSH     LPO102        -13.4819375794        2.0176106634      -35.8684249732  HPTSH     6               0.0000000000
     12751       681  HPTSH     C1             22.3107579155      -31.7184475402       22.6623349244  HPTSH     7               0.0000000000
     12752       681  HPTSH     DC1            22.3793610836      -31.7460091774       22.6797008425  HPTSH     7               0.0000000000
     12753       681  HPTSH     C2             23.3019037019      -32.6024309888       22.2366149656  HPTSH     7               0.0000000000
     12754       681  HPTSH     DC2            23.3460510561      -32.6471138998       22.1862775912  HPTSH     7               0.0000000000
     12755       681  HPTSH     C3             23.2793827309      -33.1454838562       20.9515468677  HPTSH     7               0.0000000000
     12756       681  HPTSH     DC3            23.1906250519      -33.1235976505       20.8945790016  HPTSH     7               0.0000000000
     12757       681  HPTSH     C4             22.2192625182      -32.7847442620       20.0822832194  HPTSH     7               0.0000000000
     12758       681  HPTSH     DC4            22.1776959613      -32.7716553206       20.0514773534  HPTSH     7               0.0000000000
     12759       681  HPTSH     C5             22.2523033360      -33.1566047059       18.7118010198  HPTSH     7               0.0000000000
     12760       681  HPTSH     DC5            22.1928579083      -33.1135489424       18.7155703352  HPTSH     7               0.0000000000
     12761       681  HPTSH     C6             23.3084266267      -33.9671259151       18.2142605293  HPTSH     7               0.0000000000
     12762       681  HPTSH     DC6            23.2682577384      -33.9686111807       18.2140402378  HPTSH     7               0.0000000000
     12763       681  HPTSH     C7             24.3153524502      -34.3619569480       19.1289376842  HPTSH     7               0.0000000000
     12764       681  HPTSH     DC7            24.2752328583      -34.3331202763       19.1311716905  HPTSH     7               0.0000000000
     12765       681  HPTSH     C8             24.3245834673      -33.9721511070       20.4859809176  HPTSH     7               0.0000000000
     12766       681  HPTSH     DC8            24.3218451173      -33.9748316810       20.4962119248  HPTSH     7               0.0000000000
     12767       681  HPTSH     S1             25.7779529480      -34.4523850999       21.5744462582  HPTSH     7               0.0000000000
     12768       681  HPTSH     DS1            25.7785806961      -34.4604069186       21.5569554226  HPTSH     7               0.0000000000
     12769       681  HPTSH     O1             25.2367640065      -35.1830587637       22.7714429604  HPTSH     7               0.0000000000
     12770       681  HPTSH     DO1            25.2449548836      -35.1843646844       22.7689329685  HPTSH     7               0.0000000000
     12771       681  HPTSH     O2             26.6467488680      -35.3694665504       20.7474077703  HPTSH     7               0.0000000000
     12772       681  HPTSH     DO2            26.6484037768      -35.3780089528       20.7386579470  HPTSH     7               0.0000000000
     12773       681  HPTSH     O3             26.4972265666      -33.1817861721       21.9303435102  HPTSH     7               0.0000000000
     12774       681  HPTSH     DO3            26.4972683694      -33.1851215374       21.9328490215  HPTSH     7               0.0000000000
     12775       681  HPTSH     S2             23.2185013566      -34.8740895286       16.5631826280  HPTSH     7               0.0000000000
     12776       681  HPTSH     DS2            23.2291937436      -34.8847064382       16.5795506474  HPTSH     7               0.0000000000
     12777       681  HPTSH     O4             24.3710035320      -35.8445587056       16.5551146155  HPTSH     7               0.0000000000
     12778       681  HPTSH     DO4            24.3667732655      -35.8671100630       16.5719076781  HPTSH     7               0.0000000000
     12779       681  HPTSH     O5             23.2208373592      -33.8130433809       15.5112107616  HPTSH     7               0.0000000000
     12780       681  HPTSH     DO5            23.2172724503      -33.8246300393       15.5168858868  HPTSH     7               0.0000000000
     12781       681  HPTSH     O6             21.9633727631      -35.6845261849       16.5211107501  HPTSH     7               0.0000000000
     12782       681  HPTSH     DO6            21.9709196912      -35.6947692888       16.5351207272  HPTSH     7               0.0000000000
     12783       681  HPTSH     C9             21.1413951673      -32.8500867548       17.9246028677  HPTSH     7               0.0000000000
     12784       681  HPTSH     DC9            21.0976167216      -32.8247450961       17.9127612563  HPTSH     7               0.0000000000
     12785       681  HPTSH     C10            20.0925456732      -32.0638939080       18.3956772181  HPTSH     7               0.0000000000
     12786       681  HPTSH     DC10           20.0514944737      -32.0027387819       18.4610037725  HPTSH     7               0.0000000000
     12787       681  HPTSH     C11            20.1039548479      -31.5527715237       19.6872636074  HPTSH     7               0.0000000000
     12788       681  HPTSH     DC11           20.1013797889      -31.5239243921       19.7552786090  HPTSH     7               0.0000000000
     12789       681  HPTSH     C12            19.1077952166      -30.6714921294       20.1571089180  HPTSH     7               0.0000000000
     12790       681  HPTSH     DC12           19.0508733710      -30.6201907518       20.2055788549  HPTSH     7               0.0000000000
     12791       681  HPTSH     C13            19.1893562287      -30.1670510143       21.4637303021  HPTSH     7               0.0000000000
     12792       681  HPTSH     DC13           19.2475960654      -30.1443672209       21.6137915237  HPTSH     7               0.0000000000
     12793       681  HPTSH     C14            20.2363689869      -30.5245656032       22.2864900442  HPTSH     7               0.0000000000
     12794       681  HPTSH     DC14           20.2823282433      -30.5452016726       22.2930245032  HPTSH     7               0.0000000000
     12795       681  HPTSH     C15            21.2398050176      -31.3969416460       21.8407652243  HPTSH     7               0.0000000000
     12796       681  HPTSH     DC15           21.2802352464      -31.3901666723       21.9097410264  HPTSH     7               0.0000000000
     12797       681  HPTSH     C16            21.1794046920      -31.9338374663       20.5398384840  HPTSH     7               0.0000000000
     12798       681  HPTSH     DC16           21.1454223579      -31.8815253900       20.5659921124  HPTSH     7               0.0000000000
     12799       681  HPTSH     O7             20.2158865772      -29.9521547410       23.5533540886  HPTSH     7               0.0000000000
     12800       681  HPTSH     DO7            20.2126788155      -29.9359079893       23.5816744084  HPTSH     7               0.0000000000
     12801       681  HPTSH     S3             17.7012787876      -30.0466086949       19.1149992715  HPTSH     7               0.0000000000
     12802       681  HPTSH     DS3            17.6941576919      -30.0337918960       19.1318860573  HPTSH     7               0.0000000000
     12803       681  HPTSH     O8             16.8730951379      -29.1286951647       19.9840461044  HPTSH     7               0.0000000000
     12804       681  HPTSH     DO8            16.8645311728      -29.1059320358       19.9945520195  HPTSH     7               0.0000000000
     12805       681  HPTSH     O9             18.2348064554      -29.2701333557       17.9655778521  HPTSH     7               0.0000000000
     12806       681  HPTSH     DO9            18.2131880023      -29.2629055392       17.9675267934  HPTSH     7               0.0000000000
     12807       681  HPTSH     O10            16.8636094746      -31.1826581336       18.6842782262  HPTSH     7               0.0000000000
     12808       681  HPTSH     DO10           16.8655949408      -31.1670779350       18.6880699673  HPTSH     7               0.0000000000
     12809       681  HPTSH     H1             22.3440985262      -31.3109269044       23.6619425150  HPTSH     7               0.0000000000
     12810       681  HPTSH     H2             24.1067030114      -32.8423490437       22.9156859475  HPTSH     7               0.0000000000
     12811       681  HPTSH     H3             25.1217056221      -34.9881326653       18.7766614671  HPTSH     7               0.0000000000
     12812       681  HPTSH     H4             21.1100995723      -33.2094938514       16.9066406265  HPTSH     7               0.0000000000
     12813       681  HPTSH     H5             19.2955358363      -31.8238446703       17.7075263020  HPTSH     7               0.0000000000
     12814       681  HPTSH     H6             18.4172905707      -29.4949545274       21.8081151626  HPTSH     7               0.0000000000
     12815       681  HPTSH     H7             19.3935216167      -29.4452365843       23.4658906439  HPTSH     7               0.0000000000
     12816       681  HPTSH     LPO11          24.8880179356      -35.2044825262       22.7510174760  HPTSH     7               0.0000000000
     12817       681  HPTSH     LPO12          25.4993143612      -35.2780101430       22.9825153339  HPTSH     7               0.0000000000
     12818       681  HPTSH     LPO21          26.5061347841      -35.4134601363       20.4299298280  HPTSH     7               0.0000000000
     12819       681  HPTSH     LPO22          26.9251205497      -35.4708867892       20.9337492365  HPTSH     7               0.0000000000
     12820       681  HPTSH     LPO31          26.3364292099      -32.9079528568       21.7831717552  HPTSH     7               0.0000000000
     12821       681  HPTSH     LPO32          26.7726120636      -33.2531992062       22.1342135831  HPTSH     7               0.0000000000
     12822       681  HPTSH     LPO41          24.5516955806      -35.8183068773       16.8537133849  HPTSH     7               0.0000000000
     12823       681  HPTSH     LPO42          24.3734440010      -36.0250180203       16.2552338394  HPTSH     7               0.0000000000
     12824       681  HPTSH     LPO51          23.2374817184      -33.4967822489       15.6602136533  HPTSH     7               0.0000000000
     12825       681  HPTSH     LPO52          23.2045673089      -33.9592879389       15.1936453121  HPTSH     7               0.0000000000
     12826       681  HPTSH     LPO61          21.7843719536      -35.6435416497       16.8190687640  HPTSH     7               0.0000000000
     12827       681  HPTSH     LPO62          21.9413237868      -35.8553285867       16.2164135525  HPTSH     7               0.0000000000
     12828       681  HPTSH     LPO71          20.1061828146      -30.2044249433       23.7697445447  HPTSH     7               0.0000000000
     12829       681  HPTSH     LPO72          20.4474619811      -29.6899308322       23.5427969103  HPTSH     7               0.0000000000
     12830       681  HPTSH     LPO81          17.0121320465      -29.1097416060       20.3046853108  HPTSH     7               0.0000000000
     12831       681  HPTSH     LPO82          16.6028511556      -29.0022259679       19.8010878242  HPTSH     7               0.0000000000
     12832       681  HPTSH     LPO91          18.5845334921      -29.2634272045       17.9776620301  HPTSH     7               0.0000000000
     12833       681  HPTSH     LPO92          17.9710272321      -29.1517544147       17.7683294106  HPTSH     7               0.0000000000
     12834       681  HPTSH     LPO101         16.9935057627      -31.4819622518       18.8109431352  HPTSH     7               0.0000000000
     12835       681  HPTSH     LPO102         16.5978156897      -31.0676585762       18.4877362060  HPTSH     7               0.0000000000
     12836       682  HPTSH     C1             22.2888836237       -6.5809049480       36.3894048026  HPTSH     8               0.0000000000
     12837       682  HPTSH     DC1            22.3717608710       -6.5381275620       36.4124754792  HPTSH     8               0.0000000000
     12838       682  HPTSH     C2             23.2040780509       -5.6001778512       36.0099099374  HPTSH     8               0.0000000000
     12839       682  HPTSH     DC2            23.2518696769       -5.5395216911       35.9738229019  HPTSH     8               0.0000000000
     12840       682  HPTSH     C3             23.1122240138       -4.9724132980       34.7638348763  HPTSH     8               0.0000000000
     12841       682  HPTSH     DC3            23.0471341913       -5.0179284988       34.7025974574  HPTSH     8               0.0000000000
     12842       682  HPTSH     C4             22.0630120802       -5.3503128309       33.8882353165  HPTSH     8               0.0000000000
     12843       682  HPTSH     DC4            22.0312608305       -5.3612057015       33.8590682938  HPTSH     8               0.0000000000
     12844       682  HPTSH     C5             21.9207193444       -4.7211030190       32.6237907012  HPTSH     8               0.0000000000
     12845       682  HPTSH     DC5            21.8682747089       -4.7666208220       32.6254750154  HPTSH     8               0.0000000000
     12846       682  HPTSH     C6             22.8390596552       -3.7242996036       32.2141250297  HPTSH     8               0.0000000000
     12847       682  HPTSH     DC6            22.8206250205       -3.7387896469       32.2026009091  HPTSH     8               0.0000000000
     12848       682  HPTSH     C7             23.8469330129       -3.3454142722       33.1176695844  HPTSH     8               0.0000000000
     12849       682  HPTSH     DC7            23.8158347634       -3.3909969340       33.1220337667  HPTSH     8               0.0000000000
     12850       682  HPTSH     C8             23.9899419287       -3.9345557315       34.3809735352  HPTSH     8               0.0000000000
     12851       682  HPTSH     DC8            24.0015785883       -3.9370391406       34.3967558658  HPTSH     8               0.0000000000
     12852       682  HPTSH     S1             25.2554315544       -3.1885001770       35.5049555612  HPTSH     8               0.0000000000
     12853       682  HPTSH     DS1            25.2610038227       -3.1813187804       35.4967734374  HPTSH     8               0.0000000000
     12854       682  HPTSH     O1             26.1703153826       -4.3236409420       35.8326181320  HPTSH     8               0.0000000000
     12855       682  HPTSH     DO1            26.1739164227       -4.3222858825       35.8449853802  HPTSH     8               0.0000000000
     12856       682  HPTSH     O2             26.0081539058       -2.0976051290       34.7952435597  HPTSH     8               0.0000000000
     12857       682  HPTSH     DO2            26.0138282340       -2.0969973899       34.7913620541  HPTSH     8               0.0000000000
     12858       682  HPTSH     O3             24.5509490912       -2.6356413709       36.7067652613  HPTSH     8               0.0000000000
     12859       682  HPTSH     DO3            24.5659045969       -2.6416058640       36.7207389524  HPTSH     8               0.0000000000
     12860       682  HPTSH     S2             22.8357215860       -2.8308614124       30.5741551758  HPTSH     8               0.0000000000
     12861       682  HPTSH     DS2            22.8535106785       -2.8362014998       30.5793799214  HPTSH     8               0.0000000000
     12862       682  HPTSH     O4             24.0369815689       -1.9214667385       30.5228660167  HPTSH     8               0.0000000000
     12863       682  HPTSH     DO4            24.0470252982       -1.9252607494       30.5239058835  HPTSH     8               0.0000000000
     12864       682  HPTSH     O5             21.5625432627       -2.0661586625       30.4933761189  HPTSH     8               0.0000000000
     12865       682  HPTSH     DO5            21.5760881377       -2.0748257492       30.4855331602  HPTSH     8               0.0000000000
     12866       682  HPTSH     O6             22.9349075549       -3.9191956667       29.5345295720  HPTSH     8               0.0000000000
     12867       682  HPTSH     DO6            22.9435946367       -3.9257443332       29.5250164485  HPTSH     8               0.0000000000
     12868       682  HPTSH     C9             20.8569045450       -5.1065699570       31.8108235295  HPTSH     8               0.0000000000
     12869       682  HPTSH     DC9            20.8203189250       -5.1340298493       31.7876297026  HPTSH     8               0.0000000000
     12870       682  HPTSH     C10            19.9497760026       -6.0931567994       32.1976540446  HPTSH     8               0.0000000000
     12871       682  HPTSH     DC10           19.9147395586       -6.1638095321       32.2431663643  HPTSH     8               0.0000000000
     12872       682  HPTSH     C11            20.0628194526       -6.7344568181       33.4269113653  HPTSH     8               0.0000000000
     12873       682  HPTSH     DC11           20.0788999932       -6.7568788811       33.4838580813  HPTSH     8               0.0000000000
     12874       682  HPTSH     C12            19.1707368033       -7.7562337314       33.8266327270  HPTSH     8               0.0000000000
     12875       682  HPTSH     DC12           19.1368434742       -7.8150387089       33.8587732016  HPTSH     8               0.0000000000
     12876       682  HPTSH     C13            19.3190369046       -8.3326413104       35.1052836644  HPTSH     8               0.0000000000
     12877       682  HPTSH     DC13           19.3815631750       -8.3644376517       35.2440692933  HPTSH     8               0.0000000000
     12878       682  HPTSH     C14            20.2882883007       -7.8750598128       35.9734147221  HPTSH     8               0.0000000000
     12879       682  HPTSH     DC14           20.3378010475       -7.8329496066       35.9679713587  HPTSH     8               0.0000000000
     12880       682  HPTSH     C15            21.2260854657       -6.9179479449       35.5658920070  HPTSH     8               0.0000000000
     12881       682  HPTSH     DC15           21.2974540323       -6.9233143919       35.6340828540  HPTSH     8               0.0000000000
     12882       682  HPTSH     C16            21.1211798427       -6.3323760446       34.2897601179  HPTSH     8               0.0000000000
     12883       682  HPTSH     DC16           21.0937755593       -6.3820573655       34.3221200158  HPTSH     8               0.0000000000
     12884       682  HPTSH     O7             20.3027341282       -8.4568736959       37.2371135123  HPTSH     8               0.0000000000
     12885       682  HPTSH     DO7            20.2974901008       -8.4675507946       37.2548835462  HPTSH     8               0.0000000000
     12886       682  HPTSH     S3             17.7484191553       -8.3469244332       32.7770631968  HPTSH     8               0.0000000000
     12887       682  HPTSH     DS3            17.7525113674       -8.3642503080       32.7886501126  HPTSH     8               0.0000000000
     12888       682  HPTSH     O8             17.0858267419       -9.4366671072       33.5847286512  HPTSH     8               0.0000000000
     12889       682  HPTSH     DO8            17.0923191868       -9.4545907053       33.5943050338  HPTSH     8               0.0000000000
     12890       682  HPTSH     O9             16.8152705637       -7.2121572642       32.5003712363  HPTSH     8               0.0000000000
     12891       682  HPTSH     DO9            16.8214497729       -7.2278647573       32.4999876800  HPTSH     8               0.0000000000
     12892       682  HPTSH     O10            18.3400246862       -8.9618396433       31.5455945079  HPTSH     8               0.0000000000
     12893       682  HPTSH     DO10           18.3396228312       -8.9696692037       31.5470663796  HPTSH     8               0.0000000000
     12894       682  HPTSH     H1             22.3471024978       -7.0390178826       37.3656952828  HPTSH     8               0.0000000000
     12895       682  HPTSH     H2             23.9710160465       -5.3033864890       36.7099963593  HPTSH     8               0.0000000000
     12896       682  HPTSH     H3             24.5142058278       -2.5403128380       32.8475609559  HPTSH     8               0.0000000000
     12897       682  HPTSH     H4             20.7465531418       -4.6293231738       30.8482966074  HPTSH     8               0.0000000000
     12898       682  HPTSH     H5             19.1545695341       -6.3527905925       31.5145457326  HPTSH     8               0.0000000000
     12899       682  HPTSH     H6             18.5994998122       -9.0696479508       35.4300721874  HPTSH     8               0.0000000000
     12900       682  HPTSH     H7             19.5998370475       -9.1154712460       37.1227239982  HPTSH     8               0.0000000000
     12901       682  HPTSH     LPO11          26.0625197300       -4.6147616428       35.6709739707  HPTSH     8               0.0000000000
     12902       682  HPTSH     LPO12          26.4246925210       -4.2143910043       36.0467599602  HPTSH     8               0.0000000000
     12903       682  HPTSH     LPO21          25.8892308977       -2.0635787041       34.4678301810  HPTSH     8               0.0000000000
     12904       682  HPTSH     LPO22          26.2469435234       -1.9579129304       35.0096394743  HPTSH     8               0.0000000000
     12905       682  HPTSH     LPO31          24.2064316589       -2.6910392157       36.6795840623  HPTSH     8               0.0000000000
     12906       682  HPTSH     LPO32          24.7829318073       -2.4919293207       36.9259247148  HPTSH     8               0.0000000000
     12907       682  HPTSH     LPO41          24.2205958801       -1.9488346476       30.8195759462  HPTSH     8               0.0000000000
     12908       682  HPTSH     LPO42          24.0441416143       -1.7496761513       30.2180107594  HPTSH     8               0.0000000000
     12909       682  HPTSH     LPO51          21.3737124289       -2.1170530832       30.7836392308  HPTSH     8               0.0000000000
     12910       682  HPTSH     LPO52          21.5464377206       -1.8921743280       30.1901104551  HPTSH     8               0.0000000000
     12911       682  HPTSH     LPO61          22.9492102047       -4.2323980033       29.6900921978  HPTSH     8               0.0000000000
     12912       682  HPTSH     LPO62          22.9363482421       -3.7787396672       29.2139519111  HPTSH     8               0.0000000000
     12913       682  HPTSH     LPO71          20.5801965203       -8.6701997067       37.2396891839  HPTSH     8               0.0000000000
     12914       682  HPTSH     LPO72          20.1356807145       -8.2317296184       37.4466446588  HPTSH     8               0.0000000000
     12915       682  HPTSH     LPO81          17.2541357988       -9.4796305000       33.8885809315  HPTSH     8               0.0000000000
     12916       682  HPTSH     LPO82          16.8124342213       -9.5665308288       33.4089676104  HPTSH     8               0.0000000000
     12917       682  HPTSH     LPO91          16.9332279645       -6.9201952314       32.6531594002  HPTSH     8               0.0000000000
     12918       682  HPTSH     LPO92          16.5478756262       -7.3223938869       32.3032726965  HPTSH     8               0.0000000000
     12919       682  HPTSH     LPO101         18.6892900907       -8.9431500202       31.5584153959  HPTSH     8               0.0000000000
     12920       682  HPTSH     LPO102         18.0852979069       -9.0787927809       31.3359847955  HPTSH     8               0.0000000000
     12921       683  HPTSH     C1             35.1262640534      -27.3609410492        3.3262133454  HPTSH     9               0.0000000000
     12922       683  HPTSH     DC1            35.0956125447      -27.2407137829        3.2652681757  HPTSH     9               0.0000000000
     12923       683  HPTSH     C2             34.1474099811      -26.4824245245        2.8809221993  HPTSH     9               0.0000000000
     12924       683  HPTSH     DC2            34.0428063848      -26.4176173523        2.8622051360  HPTSH     9               0.0000000000
     12925       683  HPTSH     C3             32.7914683179      -26.8128347972        2.9506020170  HPTSH     9               0.0000000000
     12926       683  HPTSH     DC3            32.7540402274      -26.8861796851        2.9768347452  HPTSH     9               0.0000000000
     12927       683  HPTSH     C4             32.4333922480      -28.0883989420        3.4690546658  HPTSH     9               0.0000000000
     12928       683  HPTSH     DC4            32.4290320699      -28.1166686855        3.4736576311  HPTSH     9               0.0000000000
     12929       683  HPTSH     C5             31.0726997313      -28.4912926405        3.5295679484  HPTSH     9               0.0000000000
     12930       683  HPTSH     DC5            31.1084376303      -28.5121815390        3.5371704280  HPTSH     9               0.0000000000
     12931       683  HPTSH     C6             30.0511850181      -27.6308594719        3.0564352011  HPTSH     9               0.0000000000
     12932       683  HPTSH     DC6            30.0359690114      -27.6383526457        3.0550782532  HPTSH     9               0.0000000000
     12933       683  HPTSH     C7             30.4377765171      -26.3555366865        2.5732332278  HPTSH     9               0.0000000000
     12934       683  HPTSH     DC7            30.4742613540      -26.3790603267        2.5801057356  HPTSH     9               0.0000000000
     12935       683  HPTSH     C8             31.7847120300      -25.9183252704        2.5253761760  HPTSH     9               0.0000000000
     12936       683  HPTSH     DC8            31.7954708744      -25.8806927417        2.5058492545  HPTSH     9               0.0000000000
     12937       683  HPTSH     S1             32.2176216991      -24.2094557552        1.8967929301  HPTSH     9               0.0000000000
     12938       683  HPTSH     DS1            32.2140319463      -24.1907068655        1.8795186224  HPTSH     9               0.0000000000
     12939       683  HPTSH     O1             33.0670920288      -24.3660149835        0.6589948751  HPTSH     9               0.0000000000
     12940       683  HPTSH     DO1            33.0748476568      -24.3483810424        0.6337843167  HPTSH     9               0.0000000000
     12941       683  HPTSH     O2             30.9494032353      -23.4892210625        1.5202995087  HPTSH     9               0.0000000000
     12942       683  HPTSH     DO2            30.9480770907      -23.4772979290        1.5095714570  HPTSH     9               0.0000000000
     12943       683  HPTSH     O3             32.9298818214      -23.3921022086        2.9333347762  HPTSH     9               0.0000000000
     12944       683  HPTSH     DO3            32.9311986029      -23.3742399425        2.9218996661  HPTSH     9               0.0000000000
     12945       683  HPTSH     S2             28.2208864326      -28.0716411502        3.0806452887  HPTSH     9               0.0000000000
     12946       683  HPTSH     DS2            28.2156690535      -28.0674024613        3.0527706223  HPTSH     9               0.0000000000
     12947       683  HPTSH     O4             27.4759397056      -26.9284013026        2.4368418877  HPTSH     9               0.0000000000
     12948       683  HPTSH     DO4            27.4635771995      -26.9229472027        2.4203477345  HPTSH     9               0.0000000000
     12949       683  HPTSH     O5             27.7852329627      -28.2771373591        4.4910975593  HPTSH     9               0.0000000000
     12950       683  HPTSH     DO5            27.7824502549      -28.2762993168        4.4633659276  HPTSH     9               0.0000000000
     12951       683  HPTSH     O6             27.9920289814      -29.3038112187        2.2316338945  HPTSH     9               0.0000000000
     12952       683  HPTSH     DO6            27.9638158499      -29.3189542399        2.2035251168  HPTSH     9               0.0000000000
     12953       683  HPTSH     C9             30.7766702477      -29.7478631822        4.0719576180  HPTSH     9               0.0000000000
     12954       683  HPTSH     DC9            30.7675083872      -29.7622807873        4.0657852516  HPTSH     9               0.0000000000
     12955       683  HPTSH     C10            31.7814856381      -30.6053852494        4.5365237396  HPTSH     9               0.0000000000
     12956       683  HPTSH     DC10           31.8506012062      -30.6173985587        4.5361239848  HPTSH     9               0.0000000000
     12957       683  HPTSH     C11            33.1262670439      -30.2444356326        4.4671142239  HPTSH     9               0.0000000000
     12958       683  HPTSH     DC11           33.1811348200      -30.2204990705        4.4557857990  HPTSH     9               0.0000000000
     12959       683  HPTSH     C12            34.1704527341      -31.0955531490        4.9091050736  HPTSH     9               0.0000000000
     12960       683  HPTSH     DC12           34.2665510168      -31.0999013463        4.9178374074  HPTSH     9               0.0000000000
     12961       683  HPTSH     C13            35.4974925527      -30.6749199723        4.8523408456  HPTSH     9               0.0000000000
     12962       683  HPTSH     DC13           35.6609622005      -30.5398222477        4.8039708978  HPTSH     9               0.0000000000
     12963       683  HPTSH     C14            35.7954328610      -29.4482766662        4.3473742976  HPTSH     9               0.0000000000
     12964       683  HPTSH     DC14           35.7555035324      -29.3663614699        4.3077000129  HPTSH     9               0.0000000000
     12965       683  HPTSH     C15            34.8040203046      -28.5798932595        3.8665343265  HPTSH     9               0.0000000000
     12966       683  HPTSH     DC15           34.8516389799      -28.4740940858        3.8166028869  HPTSH     9               0.0000000000
     12967       683  HPTSH     C16            33.4484313835      -28.9683570237        3.9330376397  HPTSH     9               0.0000000000
     12968       683  HPTSH     DC16           33.5058640861      -28.9934320928        3.9439735494  HPTSH     9               0.0000000000
     12969       683  HPTSH     O7             37.1509037397      -29.1971324553        4.3345931585  HPTSH     9               0.0000000000
     12970       683  HPTSH     DO7            37.1934504693      -29.1857120489        4.3434214564  HPTSH     9               0.0000000000
     12971       683  HPTSH     S3             33.8749951807      -32.7720344589        5.6250671690  HPTSH     9               0.0000000000
     12972       683  HPTSH     DS3            33.8978178743      -32.7511600383        5.6060761939  HPTSH     9               0.0000000000
     12973       683  HPTSH     O8             35.2277354007      -33.3541162632        5.9150343657  HPTSH     9               0.0000000000
     12974       683  HPTSH     DO8            35.2389200334      -33.3482280518        5.9128090330  HPTSH     9               0.0000000000
     12975       683  HPTSH     O9             33.1403151221      -32.4899881158        6.8787215723  HPTSH     9               0.0000000000
     12976       683  HPTSH     DO9            33.1599214117      -32.4917996873        6.8559452745  HPTSH     9               0.0000000000
     12977       683  HPTSH     O10            33.1683024590      -33.5317896078        4.5406213721  HPTSH     9               0.0000000000
     12978       683  HPTSH     DO10           33.1747771996      -33.5255973539        4.5368182515  HPTSH     9               0.0000000000
     12979       683  HPTSH     H1             36.1699427911      -27.0847027019        3.2974545548  HPTSH     9               0.0000000000
     12980       683  HPTSH     H2             34.4607604472      -25.5247374538        2.4922745954  HPTSH     9               0.0000000000
     12981       683  HPTSH     H3             29.6583480355      -25.6815536735        2.2497550364  HPTSH     9               0.0000000000
     12982       683  HPTSH     H4             29.7479314712      -30.0663193769        4.1537022306  HPTSH     9               0.0000000000
     12983       683  HPTSH     H5             31.4898884506      -31.5565353504        4.9568623718  HPTSH     9               0.0000000000
     12984       683  HPTSH     H6             36.2540187130      -31.3516132541        5.2213318631  HPTSH     9               0.0000000000
     12985       683  HPTSH     H7             37.3694764784      -30.0833287095        4.6628950881  HPTSH     9               0.0000000000
     12986       683  HPTSH     LPO11          33.1149668422      -24.7055497711        0.5888227280  HPTSH     9               0.0000000000
     12987       683  HPTSH     LPO12          33.1539572969      -24.0513130857        0.5328317237  HPTSH     9               0.0000000000
     12988       683  HPTSH     LPO21          30.6727293023      -23.6954224443        1.5788872628  HPTSH     9               0.0000000000
     12989       683  HPTSH     LPO22          31.0245007967      -23.1685423251        1.4018701895  HPTSH     9               0.0000000000
     12990       683  HPTSH     LPO31          32.9678864388      -23.5782880229        3.2272573708  HPTSH     9               0.0000000000
     12991       683  HPTSH     LPO32          33.0055656603      -23.0754532952        2.8048613464  HPTSH     9               0.0000000000
     12992       683  HPTSH     LPO41          27.7011527385      -26.6795169222        2.3376670169  HPTSH     9               0.0000000000
     12993       683  HPTSH     LPO42          27.1325183127      -26.9958760566        2.4338578504  HPTSH     9               0.0000000000
     12994       683  HPTSH     LPO51          28.0553181702      -28.2278943495        4.7081899514  HPTSH     9               0.0000000000
     12995       683  HPTSH     LPO52          27.4451671507      -28.3593899735        4.5005712555  HPTSH     9               0.0000000000
     12996       683  HPTSH     LPO61          28.2952677545      -29.4133652981        2.0954569869  HPTSH     9               0.0000000000
     12997       683  HPTSH     LPO62          27.6525942052      -29.3891366652        2.2335314992  HPTSH     9               0.0000000000
     12998       683  HPTSH     LPO71          37.2512079209      -29.2245967847        4.0004004269  HPTSH     9               0.0000000000
     12999       683  HPTSH     LPO72          37.2161746440      -29.0040286211        4.6191113799  HPTSH     9               0.0000000000
     13000       683  HPTSH     LPO81          35.4778631995      -33.1268688630        5.8239591038  HPTSH     9               0.0000000000
     13001       683  HPTSH     LPO82          35.1933831363      -33.6742115071        6.0523622826  HPTSH     9               0.0000000000
     13002       683  HPTSH     LPO91          33.0956022577      -32.1448867487        6.9162156541  HPTSH     9               0.0000000000
     13003       683  HPTSH     LPO92          33.0661965580      -32.7894696659        7.0440008499  HPTSH     9               0.0000000000
     13004       683  HPTSH     LPO101         33.1255571234      -33.3274891019        4.2596691704  HPTSH     9               0.0000000000
     13005       683  HPTSH     LPO102         33.0983197379      -33.8572824210        4.6485882526  HPTSH     9               0.0000000000
     13006       684  HPTSH     C1              3.8449361217      -24.2961630801      -23.5570334933  HPTSH     10              0.0000000000
     13007       684  HPTSH     DC1             3.7707231832      -24.2631815630      -23.4931528733  HPTSH     10              0.0000000000
     13008       684  HPTSH     C2              3.2381258632      -23.1876658431      -22.9794089324  HPTSH     10              0.0000000000
     13009       684  HPTSH     DC2             3.2165403581      -23.0961523473      -22.9614446807  HPTSH     10              0.0000000000
     13010       684  HPTSH     C3              3.7184887096      -21.9028413408      -23.2181866193  HPTSH     10              0.0000000000
     13011       684  HPTSH     DC3             3.8105623629      -21.8930126234      -23.2689485797  HPTSH     10              0.0000000000
     13012       684  HPTSH     C4              4.8693991202      -21.7427038011      -24.0259552119  HPTSH     10              0.0000000000
     13013       684  HPTSH     DC4             4.9090683084      -21.7428151143      -24.0431762962  HPTSH     10              0.0000000000
     13014       684  HPTSH     C5              5.4421817253      -20.4630898235      -24.2312973011  HPTSH     10              0.0000000000
     13015       684  HPTSH     DC5             5.4707931784      -20.5092984189      -24.2599941602  HPTSH     10              0.0000000000
     13016       684  HPTSH     C6              4.8387489502      -19.3248033014      -23.6725261405  HPTSH     10              0.0000000000
     13017       684  HPTSH     DC6             4.8500622159      -19.3207466953      -23.6961656470  HPTSH     10              0.0000000000
     13018       684  HPTSH     C7              3.6743736657      -19.5069877926      -22.8999193107  HPTSH     10              0.0000000000
     13019       684  HPTSH     DC7             3.6881448057      -19.5299815038      -22.9439762794  HPTSH     10              0.0000000000
     13020       684  HPTSH     C8              3.1021317903      -20.7709132600      -22.6621792330  HPTSH     10              0.0000000000
     13021       684  HPTSH     DC8             3.0968713404      -20.7715843846      -22.6634330960  HPTSH     10              0.0000000000
     13022       684  HPTSH     S1              1.5673645221      -20.9024977904      -21.6227549392  HPTSH     10              0.0000000000
     13023       684  HPTSH     DS1             1.5764541919      -20.8899743535      -21.6309476639  HPTSH     10              0.0000000000
     13024       684  HPTSH     O1              1.9316385989      -21.7658608728      -20.4523755416  HPTSH     10              0.0000000000
     13025       684  HPTSH     DO1             1.9284709146      -21.7676749821      -20.4489403840  HPTSH     10              0.0000000000
     13026       684  HPTSH     O2              1.2650095624      -19.4758858218      -21.2557207036  HPTSH     10              0.0000000000
     13027       684  HPTSH     DO2             1.2700530936      -19.4696124845      -21.2693199947  HPTSH     10              0.0000000000
     13028       684  HPTSH     O3              0.4968045452      -21.4797553641      -22.5097216447  HPTSH     10              0.0000000000
     13029       684  HPTSH     DO3             0.4944751115      -21.4753917333      -22.5143671922  HPTSH     10              0.0000000000
     13030       684  HPTSH     S2              5.5978662515      -17.6379853673      -23.8190331773  HPTSH     10              0.0000000000
     13031       684  HPTSH     DS2             5.5674685929      -17.6351880071      -23.8280410560  HPTSH     10              0.0000000000
     13032       684  HPTSH     O4              4.7363853598      -16.7247204160      -22.9935979518  HPTSH     10              0.0000000000
     13033       684  HPTSH     DO4             4.7225313268      -16.7256528761      -23.0064346372  HPTSH     10              0.0000000000
     13034       684  HPTSH     O5              5.4133726797      -17.3243605311      -25.2795469097  HPTSH     10              0.0000000000
     13035       684  HPTSH     DO5             5.3910878363      -17.3221737809      -25.2867204851  HPTSH     10              0.0000000000
     13036       684  HPTSH     O6              7.0276437038      -17.6721053017      -23.4061460105  HPTSH     10              0.0000000000
     13037       684  HPTSH     DO6             7.0086833349      -17.6624028531      -23.4229861875  HPTSH     10              0.0000000000
     13038       684  HPTSH     C9              6.6339199794      -20.3700535270      -24.9490463838  HPTSH     10              0.0000000000
     13039       684  HPTSH     DC9             6.6620770380      -20.3751555045      -24.9778022182  HPTSH     10              0.0000000000
     13040       684  HPTSH     C10             7.2568864897      -21.4887862204      -25.4705808269  HPTSH     10              0.0000000000
     13041       684  HPTSH     DC10            7.2613809394      -21.5759813833      -25.4925748318  HPTSH     10              0.0000000000
     13042       684  HPTSH     C11             6.7021664323      -22.7538705023      -25.3197426269  HPTSH     10              0.0000000000
     13043       684  HPTSH     DC11            6.6650064256      -22.8115963728      -25.3055195161  HPTSH     10              0.0000000000
     13044       684  HPTSH     C12             7.3434930935      -23.9134524240      -25.7858781872  HPTSH     10              0.0000000000
     13045       684  HPTSH     DC12            7.3520777966      -23.9934567861      -25.8025499365  HPTSH     10              0.0000000000
     13046       684  HPTSH     C13             6.7707248518      -25.1727187473      -25.5755437319  HPTSH     10              0.0000000000
     13047       684  HPTSH     DC13            6.6533332664      -25.2919679852      -25.5249126879  HPTSH     10              0.0000000000
     13048       684  HPTSH     C14             5.5781644836      -25.2819514342      -24.9118536412  HPTSH     10              0.0000000000
     13049       684  HPTSH     DC14            5.5313634176      -25.2415560452      -24.8844614353  HPTSH     10              0.0000000000
     13050       684  HPTSH     C15             4.9438253909      -24.1554879821      -24.3797055925  HPTSH     10              0.0000000000
     13051       684  HPTSH     DC15            4.8656554727      -24.2005431195      -24.3261108131  HPTSH     10              0.0000000000
     13052       684  HPTSH     C16             5.4830615691      -22.8745911527      -24.6038752840  HPTSH     10              0.0000000000
     13053       684  HPTSH     DC16            5.4959820093      -22.9410193241      -24.6189256768  HPTSH     10              0.0000000000
     13054       684  HPTSH     O7              5.0945794321      -26.5710649568      -24.7640951595  HPTSH     10              0.0000000000
     13055       684  HPTSH     DO7             5.0908753786      -26.5916144988      -24.7620459080  HPTSH     10              0.0000000000
     13056       684  HPTSH     S3              8.9541841511      -23.8004824031      -26.6620136276  HPTSH     10              0.0000000000
     13057       684  HPTSH     DS3             8.9361190891      -23.8182537949      -26.6660576030  HPTSH     10              0.0000000000
     13058       684  HPTSH     O8              9.2940007248      -25.2313660113      -27.0255880292  HPTSH     10              0.0000000000
     13059       684  HPTSH     DO8             9.2815783885      -25.2462486724      -27.0279052207  HPTSH     10              0.0000000000
     13060       684  HPTSH     O9              8.6383803032      -22.9439995084      -27.8655869629  HPTSH     10              0.0000000000
     13061       684  HPTSH     DO9             8.6303305338      -22.9486371852      -27.8682882591  HPTSH     10              0.0000000000
     13062       684  HPTSH     O10             9.9368265221      -23.2450701412      -25.6929778423  HPTSH     10              0.0000000000
     13063       684  HPTSH     DO10            9.9236936972      -23.2580067899      -25.7035351344  HPTSH     10              0.0000000000
     13064       684  HPTSH     H1              3.4601137238      -25.2880124618      -23.3711665352  HPTSH     10              0.0000000000
     13065       684  HPTSH     H2              2.3726220120      -23.3401979015      -22.3516852235  HPTSH     10              0.0000000000
     13066       684  HPTSH     H3              3.2675927440      -18.6627984119      -22.3630081715  HPTSH     10              0.0000000000
     13067       684  HPTSH     H4              7.1066571837      -19.4080692510      -25.0813558261  HPTSH     10              0.0000000000
     13068       684  HPTSH     H5              8.1973673637      -21.3439370008      -25.9813786628  HPTSH     10              0.0000000000
     13069       684  HPTSH     H6              7.2874608968      -26.0413583144      -25.9561342759  HPTSH     10              0.0000000000
     13070       684  HPTSH     H7              5.8598880144      -27.0601600770      -25.1046663522  HPTSH     10              0.0000000000
     13071       684  HPTSH     LPO11           2.2664107968      -21.8651024645      -20.4764313508  HPTSH     10              0.0000000000
     13072       684  HPTSH     LPO12           1.6550353867      -21.8044851303      -20.2414280842  HPTSH     10              0.0000000000
     13073       684  HPTSH     LPO21           1.5044119682      -19.2627857787      -21.3963438160  HPTSH     10              0.0000000000
     13074       684  HPTSH     LPO22           0.9774697699      -19.4618575513      -21.0566627339  HPTSH     10              0.0000000000
     13075       684  HPTSH     LPO31           0.6255223288      -21.5388557809      -22.8297823779  HPTSH     10              0.0000000000
     13076       684  HPTSH     LPO32           0.1978209590      -21.5124641185      -22.3307273639  HPTSH     10              0.0000000000
     13077       684  HPTSH     LPO41           4.4739638367      -16.9058057057      -22.8492266873  HPTSH     10              0.0000000000
     13078       684  HPTSH     LPO42           4.8615364143      -16.3981132591      -23.0064423521  HPTSH     10              0.0000000000
     13079       684  HPTSH     LPO51           5.2519849346      -17.5904707459      -25.4396698291  HPTSH     10              0.0000000000
     13080       684  HPTSH     LPO52           5.5454144157      -17.0083643652      -25.3517369583  HPTSH     10              0.0000000000
     13081       684  HPTSH     LPO61           7.1170812990      -17.9968660115      -23.3111123432  HPTSH     10              0.0000000000
     13082       684  HPTSH     LPO62           7.1681610478      -17.3528321923      -23.4347739283  HPTSH     10              0.0000000000
     13083       684  HPTSH     LPO71           5.1255929123      -26.6451919338      -24.4234437903  HPTSH     10              0.0000000000
     13084       684  HPTSH     LPO72           4.8720796175      -26.6196006206      -25.0298734916  HPTSH     10              0.0000000000
     13085       684  HPTSH     LPO81           9.0420781655      -25.4465865147      -26.9128265152  HPTSH     10              0.0000000000
     13086       684  HPTSH     LPO82           9.5996257791      -25.2422734422      -27.1958065773  HPTSH     10              0.0000000000
     13087       684  HPTSH     LPO91           8.3005619570      -22.8525303842      -27.8620992354  HPTSH     10              0.0000000000
     13088       684  HPTSH     LPO92           8.9261467712      -22.8997243156      -28.0598295103  HPTSH     10              0.0000000000
     13089       684  HPTSH     LPO101          9.7806290166      -23.1841102933      -25.3857544119  HPTSH     10              0.0000000000
     13090       684  HPTSH     LPO102         10.2511651346      -23.2166449673      -25.8442499355  HPTSH     10              0.0000000000
     13091       685  HPTSH     C1            -14.1817055726        3.6124501128       11.7822612960  HPTSH     11              0.0000000000
     13092       685  HPTSH     DC1           -14.1225553584        3.5408496860       11.7962110522  HPTSH     11              0.0000000000
     13093       685  HPTSH     C2            -14.2470365891        2.3144601134       12.2740457449  HPTSH     11              0.0000000000
     13094       685  HPTSH     DC2           -14.2681378332        2.2467284572       12.3070527696  HPTSH     11              0.0000000000
     13095       685  HPTSH     C3            -15.3905578241        1.8419753240       12.9201448159  HPTSH     11              0.0000000000
     13096       685  HPTSH     DC3           -15.4641298163        1.9246534412       12.9248384898  HPTSH     11              0.0000000000
     13097       685  HPTSH     C4            -16.4822951445        2.7198570827       13.0962029792  HPTSH     11              0.0000000000
     13098       685  HPTSH     DC4           -16.5237702443        2.7513617398       13.1029717142  HPTSH     11              0.0000000000
     13099       685  HPTSH     C5            -17.6479181018        2.3048658724       13.7931411321  HPTSH     11              0.0000000000
     13100       685  HPTSH     DC5           -17.6755670137        2.3870119689       13.7692430589  HPTSH     11              0.0000000000
     13101       685  HPTSH     C6            -17.7371418683        0.9930649015       14.3155160171  HPTSH     11              0.0000000000
     13102       685  HPTSH     DC6           -17.7699468965        1.0280875100       14.3080482418  HPTSH     11              0.0000000000
     13103       685  HPTSH     C7            -16.6315828143        0.1317931745       14.1087338779  HPTSH     11              0.0000000000
     13104       685  HPTSH     DC7           -16.6547090837        0.1881137027       14.0874884157  HPTSH     11              0.0000000000
     13105       685  HPTSH     C8            -15.4588839514        0.5326011374       13.4246108693  HPTSH     11              0.0000000000
     13106       685  HPTSH     DC8           -15.4549204892        0.5459304829       13.4126817547  HPTSH     11              0.0000000000
     13107       685  HPTSH     S1            -14.0904780172       -0.7167494318       13.1366253292  HPTSH     11              0.0000000000
     13108       685  HPTSH     DS1           -14.1024755364       -0.7115451145       13.1445154063  HPTSH     11              0.0000000000
     13109       685  HPTSH     O1            -12.7926446075       -0.1290698509       13.6501452402  HPTSH     11              0.0000000000
     13110       685  HPTSH     DO1           -12.7833006000       -0.1190671463       13.6435600410  HPTSH     11              0.0000000000
     13111       685  HPTSH     O2            -14.5105987627       -1.9616382690       13.8473422142  HPTSH     11              0.0000000000
     13112       685  HPTSH     DO2           -14.5225260048       -1.9612052627       13.8429745990  HPTSH     11              0.0000000000
     13113       685  HPTSH     O3            -14.0968995958       -0.9366953581       11.6595275053  HPTSH     11              0.0000000000
     13114       685  HPTSH     DO3           -14.1022486736       -0.9285109577       11.6598165615  HPTSH     11              0.0000000000
     13115       685  HPTSH     S2            -19.1186841942        0.4152221920       15.4523321421  HPTSH     11              0.0000000000
     13116       685  HPTSH     DS2           -19.1267555537        0.4178173509       15.4462311034  HPTSH     11              0.0000000000
     13117       685  HPTSH     O4            -18.8582912349       -0.9925382099       15.8715326587  HPTSH     11              0.0000000000
     13118       685  HPTSH     DO4           -18.8674254815       -0.9816580861       15.8635873705  HPTSH     11              0.0000000000
     13119       685  HPTSH     O5            -20.3391758274        0.4858696488       14.5855488056  HPTSH     11              0.0000000000
     13120       685  HPTSH     DO5           -20.3646651482        0.4897338859       14.5815640035  HPTSH     11              0.0000000000
     13121       685  HPTSH     O6            -19.3168143083        1.3453252967       16.6285500378  HPTSH     11              0.0000000000
     13122       685  HPTSH     DO6           -19.3369605286        1.3536264368       16.6343317748  HPTSH     11              0.0000000000
     13123       685  HPTSH     C9            -18.6232944417        3.2566971697       14.0588974020  HPTSH     11              0.0000000000
     13124       685  HPTSH     DC9           -18.6704191124        3.3087441170       14.0693733512  HPTSH     11              0.0000000000
     13125       685  HPTSH     C10           -18.5318606021        4.5616371516       13.5953668745  HPTSH     11              0.0000000000
     13126       685  HPTSH     DC10          -18.5119727918        4.6352267600       13.5540279447  HPTSH     11              0.0000000000
     13127       685  HPTSH     C11           -17.4429652466        4.9726974504       12.8316594627  HPTSH     11              0.0000000000
     13128       685  HPTSH     DC11          -17.3962770445        4.9852385069       12.8037810543  HPTSH     11              0.0000000000
     13129       685  HPTSH     C12           -17.3345472297        6.2693332661       12.3002403097  HPTSH     11              0.0000000000
     13130       685  HPTSH     DC12          -17.3139170552        6.3315449805       12.2576465376  HPTSH     11              0.0000000000
     13131       685  HPTSH     C13           -16.2599742144        6.5968331810       11.4615048819  HPTSH     11              0.0000000000
     13132       685  HPTSH     DC13          -16.1177302544        6.5750134656       11.3816467139  HPTSH     11              0.0000000000
     13133       685  HPTSH     C14           -15.2530059006        5.6947902738       11.2380250967  HPTSH     11              0.0000000000
     13134       685  HPTSH     DC14          -15.2350355098        5.6400480742       11.2498075592  HPTSH     11              0.0000000000
     13135       685  HPTSH     C15           -15.2717614011        4.4499104054       11.8706830165  HPTSH     11              0.0000000000
     13136       685  HPTSH     DC15          -15.1834251569        4.4221360332       11.8485762164  HPTSH     11              0.0000000000
     13137       685  HPTSH     C16           -16.4039760824        4.0401880184       12.5985577881  HPTSH     11              0.0000000000
     13138       685  HPTSH     DC16          -16.3880617578        4.1053865642       12.5690556776  HPTSH     11              0.0000000000
     13139       685  HPTSH     O7            -14.2135688207        6.1346324495       10.4208763926  HPTSH     11              0.0000000000
     13140       685  HPTSH     DO7           -14.1919844561        6.1443769822       10.4045461171  HPTSH     11              0.0000000000
     13141       685  HPTSH     S3            -18.6355552272        7.5337532154       12.5146517662  HPTSH     11              0.0000000000
     13142       685  HPTSH     DS3           -18.6264739019        7.5341964300       12.5076260475  HPTSH     11              0.0000000000
     13143       685  HPTSH     O8            -18.1168646236        8.7233916973       11.7403259780  HPTSH     11              0.0000000000
     13144       685  HPTSH     DO8           -18.0979122596        8.7204512796       11.7264768734  HPTSH     11              0.0000000000
     13145       685  HPTSH     O9            -19.8308268590        6.8771023354       11.8862180514  HPTSH     11              0.0000000000
     13146       685  HPTSH     DO9           -19.8340717138        6.8708654415       11.8954624860  HPTSH     11              0.0000000000
     13147       685  HPTSH     O10           -18.7723251236        7.8146376212       13.9855433662  HPTSH     11              0.0000000000
     13148       685  HPTSH     DO10          -18.7765208934        7.8145909011       13.9844843941  HPTSH     11              0.0000000000
     13149       685  HPTSH     H1            -13.3232874796        3.9481306369       11.2193785699  HPTSH     11              0.0000000000
     13150       685  HPTSH     H2            -13.4119317471        1.6528763282       12.0971084735  HPTSH     11              0.0000000000
     13151       685  HPTSH     H3            -16.6343298546       -0.8555095781       14.5464846388  HPTSH     11              0.0000000000
     13152       685  HPTSH     H4            -19.4743390913        2.9636387204       14.6557556345  HPTSH     11              0.0000000000
     13153       685  HPTSH     H5            -19.3320360601        5.2496783852       13.8249719640  HPTSH     11              0.0000000000
     13154       685  HPTSH     H6            -16.2059100369        7.5926818018       11.0470623779  HPTSH     11              0.0000000000
     13155       685  HPTSH     H7            -14.4891899006        7.0593789099       10.3219976570  HPTSH     11              0.0000000000
     13156       685  HPTSH     LPO11         -12.8494478160        0.1905667490       13.7809345345  HPTSH     11              0.0000000000
     13157       685  HPTSH     LPO12         -12.5306662126       -0.3557998677       13.6005385866  HPTSH     11              0.0000000000
     13158       685  HPTSH     LPO21         -14.8207009609       -1.9123518330       14.0019626330  HPTSH     11              0.0000000000
     13159       685  HPTSH     LPO22         -14.2678311572       -2.2104484936       13.8066315047  HPTSH     11              0.0000000000
     13160       685  HPTSH     LPO31         -14.3454480287       -0.7405415923       11.5103719601  HPTSH     11              0.0000000000
     13161       685  HPTSH     LPO32         -13.8493806387       -1.1681097721       11.5718819983  HPTSH     11              0.0000000000
     13162       685  HPTSH     LPO41         -18.5610358295       -1.1074814948       15.7268700679  HPTSH     11              0.0000000000
     13163       685  HPTSH     LPO42         -19.1137556713       -1.1035291114       16.0834735504  HPTSH     11              0.0000000000
     13164       685  HPTSH     LPO51         -20.2526099033        0.5992226662       14.2659280393  HPTSH     11              0.0000000000
     13165       685  HPTSH     LPO52         -20.6207212341        0.3838029068       14.7666967124  HPTSH     11              0.0000000000
     13166       685  HPTSH     LPO61         -19.0890765797        1.6105277858       16.6111383530  HPTSH     11              0.0000000000
     13167       685  HPTSH     LPO62         -19.5759128837        1.2273433410       16.8321383142  HPTSH     11              0.0000000000
     13168       685  HPTSH     LPO71         -13.9383723123        6.1784873285       10.6326395418  HPTSH     11              0.0000000000
     13169       685  HPTSH     LPO72         -14.2888565308        6.0170647602       10.0999253074  HPTSH     11              0.0000000000
     13170       685  HPTSH     LPO81         -17.8065433740        8.6472016924       11.5975120949  HPTSH     11              0.0000000000
     13171       685  HPTSH     LPO82         -18.3450139677        8.9880463866       11.7604697664  HPTSH     11              0.0000000000
     13172       685  HPTSH     LPO91         -19.7439352451        6.5599839191       11.7662774100  HPTSH     11              0.0000000000
     13173       685  HPTSH     LPO92         -20.1082921622        7.0895245659       11.9059614421  HPTSH     11              0.0000000000
     13174       685  HPTSH     LPO101        -18.5466617689        7.6176089944       14.1665289196  HPTSH     11              0.0000000000
     13175       685  HPTSH     LPO102        -19.0197644749        8.0563876231       14.0387477272  HPTSH     11              0.0000000000
     13176       686  HPTSH     C1            -35.9727078602       10.9558523187        4.9105787720  HPTSH     12              0.0000000000
     13177       686  HPTSH     DC1           -35.9320213185       10.9133571582        4.7961751642  HPTSH     12              0.0000000000
     13178       686  HPTSH     C2            -35.3477584492       11.1143899602        3.6786828825  HPTSH     12              0.0000000000
     13179       686  HPTSH     DC2           -35.2849205413       11.1611100645        3.5823036699  HPTSH     12              0.0000000000
     13180       686  HPTSH     C3            -34.7595572016       12.3210936777        3.3163257390  HPTSH     12              0.0000000000
     13181       686  HPTSH     DC3           -34.7538047341       12.4094179746        3.3677363137  HPTSH     12              0.0000000000
     13182       686  HPTSH     C4            -34.7810173656       13.3872186907        4.2448800094  HPTSH     12              0.0000000000
     13183       686  HPTSH     DC4           -34.7706382565       13.4331442719        4.2600963925  HPTSH     12              0.0000000000
     13184       686  HPTSH     C5            -34.1923660625       14.6350069197        3.9288192591  HPTSH     12              0.0000000000
     13185       686  HPTSH     DC5           -34.2127261908       14.6503524178        3.9774422288  HPTSH     12              0.0000000000
     13186       686  HPTSH     C6            -33.5706735977       14.8425934744        2.6838045457  HPTSH     12              0.0000000000
     13187       686  HPTSH     DC6           -33.5608479356       14.8725130727        2.7002558743  HPTSH     12              0.0000000000
     13188       686  HPTSH     C7            -33.6162187026       13.7896547310        1.7513649102  HPTSH     12              0.0000000000
     13189       686  HPTSH     DC7           -33.6280967669       13.8086323968        1.7898362903  HPTSH     12              0.0000000000
     13190       686  HPTSH     C8            -34.1629286970       12.5224219884        2.0546535652  HPTSH     12              0.0000000000
     13191       686  HPTSH     DC8           -34.1465352968       12.5158960120        2.0311954823  HPTSH     12              0.0000000000
     13192       686  HPTSH     S1            -34.0559261927       11.1431023199        0.8105824690  HPTSH     12              0.0000000000
     13193       686  HPTSH     DS1           -34.0371282022       11.1515522345        0.7957329038  HPTSH     12              0.0000000000
     13194       686  HPTSH     O1            -35.4337156532       10.7141458385        0.3995290719  HPTSH     12              0.0000000000
     13195       686  HPTSH     DO1           -35.4226858346       10.7093417096        0.3971170906  HPTSH     12              0.0000000000
     13196       686  HPTSH     O2            -33.2886661931       11.7256412865       -0.3575996385  HPTSH     12              0.0000000000
     13197       686  HPTSH     DO2           -33.2673946935       11.7320819460       -0.3687975737  HPTSH     12              0.0000000000
     13198       686  HPTSH     O3            -33.2526919492       10.0315696836        1.4260572539  HPTSH     12              0.0000000000
     13199       686  HPTSH     DO3           -33.2438049498       10.0241097855        1.4183233922  HPTSH     12              0.0000000000
     13200       686  HPTSH     S2            -32.7137697107       16.4414030907        2.2869596472  HPTSH     12              0.0000000000
     13201       686  HPTSH     DS2           -32.6961766352       16.4441913225        2.2821541713  HPTSH     12              0.0000000000
     13202       686  HPTSH     O4            -32.0811511862       16.3395837268        0.9313105248  HPTSH     12              0.0000000000
     13203       686  HPTSH     DO4           -32.0729497679       16.3431154348        0.9247061166  HPTSH     12              0.0000000000
     13204       686  HPTSH     O5            -31.6569318191       16.6850651548        3.3409946176  HPTSH     12              0.0000000000
     13205       686  HPTSH     DO5           -31.6373104286       16.7035737317        3.3567503701  HPTSH     12              0.0000000000
     13206       686  HPTSH     O6            -33.7814349666       17.4919300638        2.3211220923  HPTSH     12              0.0000000000
     13207       686  HPTSH     DO6           -33.7766129060       17.4916368083        2.3177995107  HPTSH     12              0.0000000000
     13208       686  HPTSH     C9            -34.2509358779       15.6599425737        4.8624483922  HPTSH     12              0.0000000000
     13209       686  HPTSH     DC9           -34.2439891394       15.6933272418        4.8904691452  HPTSH     12              0.0000000000
     13210       686  HPTSH     C10           -34.8435830184       15.4828819915        6.0871966822  HPTSH     12              0.0000000000
     13211       686  HPTSH     DC10          -34.8778709912       15.4567834130        6.1479753295  HPTSH     12              0.0000000000
     13212       686  HPTSH     C11           -35.4198532583       14.2731165233        6.4478839946  HPTSH     12              0.0000000000
     13213       686  HPTSH     DC11          -35.4356898061       14.2139017751        6.4279706472  HPTSH     12              0.0000000000
     13214       686  HPTSH     C12           -36.0053898627       14.1019273848        7.7095840323  HPTSH     12              0.0000000000
     13215       686  HPTSH     DC12          -36.0387866612       14.1052714313        7.7456215301  HPTSH     12              0.0000000000
     13216       686  HPTSH     C13           -36.6928416255       12.8931480271        7.9788800766  HPTSH     12              0.0000000000
     13217       686  HPTSH     DC13          -36.7322740783       12.7753101731        7.9550169036  HPTSH     12              0.0000000000
     13218       686  HPTSH     C14           -36.7110019372       11.8630004198        7.0408006692  HPTSH     12              0.0000000000
     13219       686  HPTSH     DC14          -36.6881834504       11.8743850683        6.9788037974  HPTSH     12              0.0000000000
     13220       686  HPTSH     C15           -36.0412728831       11.9996756373        5.8167915040  HPTSH     12              0.0000000000
     13221       686  HPTSH     DC15          -36.0494782190       11.8951711928        5.7669629020  HPTSH     12              0.0000000000
     13222       686  HPTSH     C16           -35.4108297568       13.2167745641        5.5040280274  HPTSH     12              0.0000000000
     13223       686  HPTSH     DC16          -35.4409984235       13.1836569419        5.5389497921  HPTSH     12              0.0000000000
     13224       686  HPTSH     O7            -37.3248932049       10.6576047859        7.4144676231  HPTSH     12              0.0000000000
     13225       686  HPTSH     DO7           -37.3363400174       10.6586068464        7.4135633533  HPTSH     12              0.0000000000
     13226       686  HPTSH     S3            -35.8968118019       15.5381443844        8.8965606444  HPTSH     12              0.0000000000
     13227       686  HPTSH     DS3           -35.9025014336       15.5467327740        8.9032667504  HPTSH     12              0.0000000000
     13228       686  HPTSH     O8            -36.5793789881       15.1678930652       10.1541704437  HPTSH     12              0.0000000000
     13229       686  HPTSH     DO8           -36.6028025526       15.1878776637       10.1607892326  HPTSH     12              0.0000000000
     13230       686  HPTSH     O9            -34.5063361926       16.1136686027        9.1353718328  HPTSH     12              0.0000000000
     13231       686  HPTSH     DO9           -34.4942177825       16.1601724820        9.1334544409  HPTSH     12              0.0000000000
     13232       686  HPTSH     O10           -36.7557125957       16.5929527430        8.2797117374  HPTSH     12              0.0000000000
     13233       686  HPTSH     DO10          -36.7611970080       16.6001601330        8.2897775416  HPTSH     12              0.0000000000
     13234       686  HPTSH     H1            -36.4272987033       10.0136195214        5.1788035306  HPTSH     12              0.0000000000
     13235       686  HPTSH     H2            -35.3424688084       10.2799759969        2.9930260022  HPTSH     12              0.0000000000
     13236       686  HPTSH     H3            -33.1578427344       13.9298443000        0.7835641267  HPTSH     12              0.0000000000
     13237       686  HPTSH     H4            -33.8320388728       16.6296076076        4.6373372619  HPTSH     12              0.0000000000
     13238       686  HPTSH     H5            -34.8518479419       16.3324459395        6.7539596006  HPTSH     12              0.0000000000
     13239       686  HPTSH     H6            -37.1074101963       12.7247162661        8.9618163115  HPTSH     12              0.0000000000
     13240       686  HPTSH     H7            -37.2766852895       10.6779199460        8.3830559212  HPTSH     12              0.0000000000
     13241       686  HPTSH     LPO11         -35.6738006538       10.9051671335        0.5679632055  HPTSH     12              0.0000000000
     13242       686  HPTSH     LPO12         -35.4134766503       10.4546784069        0.1655054946  HPTSH     12              0.0000000000
     13243       686  HPTSH     LPO21         -33.2027591945       12.0582303658       -0.2904841268  HPTSH     12              0.0000000000
     13244       686  HPTSH     LPO22         -33.2532567373       11.4851612211       -0.6094239991  HPTSH     12              0.0000000000
     13245       686  HPTSH     LPO31         -33.1522723447       10.1211558299        1.7491520161  HPTSH     12              0.0000000000
     13246       686  HPTSH     LPO32         -33.2251775952        9.7649458035        1.2009913371  HPTSH     12              0.0000000000
     13247       686  HPTSH     LPO41         -32.1429801733       16.0237337176        0.7937752636  HPTSH     12              0.0000000000
     13248       686  HPTSH     LPO42         -31.9183134705       16.6391764749        0.8523924432  HPTSH     12              0.0000000000
     13249       686  HPTSH     LPO51         -31.6575045284       16.4236790671        3.5737541184  HPTSH     12              0.0000000000
     13250       686  HPTSH     LPO52         -31.4890576830       16.9850238668        3.2750928307  HPTSH     12              0.0000000000
     13251       686  HPTSH     LPO61         -34.0900942978       17.3464263814        2.3989558619  HPTSH     12              0.0000000000
     13252       686  HPTSH     LPO62         -33.6433867488       17.8053061907        2.2487474240  HPTSH     12              0.0000000000
     13253       686  HPTSH     LPO71         -37.6686826723       10.7126936873        7.3787742757  HPTSH     12              0.0000000000
     13254       686  HPTSH     LPO72         -37.0857472501       10.4087946323        7.3561347872  HPTSH     12              0.0000000000
     13255       686  HPTSH     LPO81         -36.7064358445       14.8426556820       10.1301454609  HPTSH     12              0.0000000000
     13256       686  HPTSH     LPO82         -36.5628858168       15.4331563521       10.3819057373  HPTSH     12              0.0000000000
     13257       686  HPTSH     LPO91         -34.2699614884       15.9379756467        8.9462713716  HPTSH     12              0.0000000000
     13258       686  HPTSH     LPO92         -34.5242308423       16.3797914532        9.3619957724  HPTSH     12              0.0000000000
     13259       686  HPTSH     LPO101        -36.8925772499       16.4755804704        7.9797253777  HPTSH     12              0.0000000000
     13260       686  HPTSH     LPO102        -36.7565242201       16.8794040183        8.4808211807  HPTSH     12              0.0000000000
     13261       687  HPTSH     C1             26.2162582003      -23.2280043869      -22.7912759181  HPTSH     13              0.0000000000
     13262       687  HPTSH     DC1            26.1083197228      -23.2004612598      -22.6936276188  HPTSH     13              0.0000000000
     13263       687  HPTSH     C2             24.8639004398      -22.9306114634      -22.6594627016  HPTSH     13              0.0000000000
     13264       687  HPTSH     DC2            24.7427372496      -22.9231576455      -22.6796111226  HPTSH     13              0.0000000000
     13265       687  HPTSH     C3             24.0083727208      -22.9724432632      -23.7598141743  HPTSH     13              0.0000000000
     13266       687  HPTSH     DC3            24.0159634919      -22.9791935437      -23.8500523697  HPTSH     13              0.0000000000
     13267       687  HPTSH     C4             24.5604566600      -23.3126766540      -25.0307854294  HPTSH     13              0.0000000000
     13268       687  HPTSH     DC4            24.5686781627      -23.3121966579      -25.0556438961  HPTSH     13              0.0000000000
     13269       687  HPTSH     C5             23.7533989156      -23.2963335138      -26.1977670671  HPTSH     13              0.0000000000
     13270       687  HPTSH     DC5            23.7937151387      -23.3001195579      -26.1889831721  HPTSH     13              0.0000000000
     13271       687  HPTSH     C6             22.3788303607      -22.9668616418      -26.1119375852  HPTSH     13              0.0000000000
     13272       687  HPTSH     DC6            22.3695761047      -22.9753497256      -26.1360897455  HPTSH     13              0.0000000000
     13273       687  HPTSH     C7             21.8577482914      -22.6456397104      -24.8349950221  HPTSH     13              0.0000000000
     13274       687  HPTSH     DC7            21.8927927858      -22.6597319907      -24.8458277556  HPTSH     13              0.0000000000
     13275       687  HPTSH     C8             22.6384879352      -22.6394446037      -23.6521908932  HPTSH     13              0.0000000000
     13276       687  HPTSH     DC8            22.6069782784      -22.6330970252      -23.6258605838  HPTSH     13              0.0000000000
     13277       687  HPTSH     S1             21.8423255190      -22.1920973751      -22.0074389408  HPTSH     13              0.0000000000
     13278       687  HPTSH     DS1            21.8081663102      -22.1994756823      -22.0016924647  HPTSH     13              0.0000000000
     13279       687  HPTSH     O1             22.4109511016      -20.9394993380      -21.4102315343  HPTSH     13              0.0000000000
     13280       687  HPTSH     DO1            22.3894709963      -20.9476742111      -21.4008324865  HPTSH     13              0.0000000000
     13281       687  HPTSH     O2             20.3680235344      -21.9848616808      -22.2823975544  HPTSH     13              0.0000000000
     13282       687  HPTSH     DO2            20.3331309864      -21.9978073766      -22.2702617126  HPTSH     13              0.0000000000
     13283       687  HPTSH     O3             21.9023844487      -23.3643318688      -21.0552215261  HPTSH     13              0.0000000000
     13284       687  HPTSH     DO3            21.8750124501      -23.3725401309      -21.0384303094  HPTSH     13              0.0000000000
     13285       687  HPTSH     S2             21.2499486607      -22.9600476100      -27.6122771070  HPTSH     13              0.0000000000
     13286       687  HPTSH     DS2            21.2195606374      -22.9697060128      -27.6005816718  HPTSH     13              0.0000000000
     13287       687  HPTSH     O4             19.8299998921      -22.6712493330      -27.1512066136  HPTSH     13              0.0000000000
     13288       687  HPTSH     DO4            19.7933116366      -22.6828538201      -27.1492411351  HPTSH     13              0.0000000000
     13289       687  HPTSH     O5             21.3047845723      -24.3492262907      -28.1929869904  HPTSH     13              0.0000000000
     13290       687  HPTSH     DO5            21.2866748923      -24.3602368641      -28.1970347064  HPTSH     13              0.0000000000
     13291       687  HPTSH     O6             21.6907319707      -21.9573137921      -28.6197071167  HPTSH     13              0.0000000000
     13292       687  HPTSH     DO6            21.6707845593      -21.9795017594      -28.6171941153  HPTSH     13              0.0000000000
     13293       687  HPTSH     C9             24.3619861566      -23.5716593623      -27.4281435519  HPTSH     13              0.0000000000
     13294       687  HPTSH     DC9            24.3522217601      -23.5831435076      -27.4415584096  HPTSH     13              0.0000000000
     13295       687  HPTSH     C10            25.7286888500      -23.8462414608      -27.5344399525  HPTSH     13              0.0000000000
     13296       687  HPTSH     DC10           25.7800135164      -23.8637718574      -27.5038519170  HPTSH     13              0.0000000000
     13297       687  HPTSH     C11            26.5455710251      -23.8674492112      -26.4104202407  HPTSH     13              0.0000000000
     13298       687  HPTSH     DC11           26.5580971340      -23.8648048924      -26.3584044074  HPTSH     13              0.0000000000
     13299       687  HPTSH     C12            27.9311751625      -24.1515789614      -26.4965839870  HPTSH     13              0.0000000000
     13300       687  HPTSH     DC12           27.9926240801      -24.1603762413      -26.4712498675  HPTSH     13              0.0000000000
     13301       687  HPTSH     C13            28.7189548162      -24.0981995827      -25.3353026079  HPTSH     13              0.0000000000
     13302       687  HPTSH     DC13           28.7375441613      -24.0759985459      -25.1636336551  HPTSH     13              0.0000000000
     13303       687  HPTSH     C14            28.1464743646      -23.7831358745      -24.1341513025  HPTSH     13              0.0000000000
     13304       687  HPTSH     DC14           28.0525159313      -23.7630528076      -24.1111587872  HPTSH     13              0.0000000000
     13305       687  HPTSH     C15            26.7760703682      -23.5299748738      -24.0084527989  HPTSH     13              0.0000000000
     13306       687  HPTSH     DC15           26.7344526658      -23.5033184462      -23.8790503763  HPTSH     13              0.0000000000
     13307       687  HPTSH     C16            25.9542485726      -23.5779053302      -25.1505042143  HPTSH     13              0.0000000000
     13308       687  HPTSH     DC16           26.0106885777      -23.5932098403      -25.1320104537  HPTSH     13              0.0000000000
     13309       687  HPTSH     O7             29.0155664475      -23.7461658649      -23.0560771861  HPTSH     13              0.0000000000
     13310       687  HPTSH     DO7            29.0177030349      -23.7405840465      -23.0513867184  HPTSH     13              0.0000000000
     13311       687  HPTSH     S3             28.8024338627      -24.5855092306      -28.0793208921  HPTSH     13              0.0000000000
     13312       687  HPTSH     DS3            28.8056751466      -24.5879775129      -28.0569223818  HPTSH     13              0.0000000000
     13313       687  HPTSH     O8             30.2529229950      -24.7691232812      -27.7275155882  HPTSH     13              0.0000000000
     13314       687  HPTSH     DO8            30.2562334244      -24.7616315558      -27.7202563422  HPTSH     13              0.0000000000
     13315       687  HPTSH     O9             28.1986060271      -25.8546496524      -28.5852995511  HPTSH     13              0.0000000000
     13316       687  HPTSH     DO9            28.2025054742      -25.8549969710      -28.5826231174  HPTSH     13              0.0000000000
     13317       687  HPTSH     O10            28.6331025785      -23.4222573042      -28.9823880855  HPTSH     13              0.0000000000
     13318       687  HPTSH     DO10           28.6452406822      -23.4350938387      -28.9707584623  HPTSH     13              0.0000000000
     13319       687  HPTSH     H1             26.8764426526      -23.1845549424      -21.9376550217  HPTSH     13              0.0000000000
     13320       687  HPTSH     H2             24.4942464038      -22.6382098068      -21.6877337451  HPTSH     13              0.0000000000
     13321       687  HPTSH     H3             20.8215025797      -22.3493051043      -24.7658529488  HPTSH     13              0.0000000000
     13322       687  HPTSH     H4             23.7762859737      -23.5498467810      -28.3352706141  HPTSH     13              0.0000000000
     13323       687  HPTSH     H5             26.1400021166      -24.0438541863      -28.5133018464  HPTSH     13              0.0000000000
     13324       687  HPTSH     H6             29.7794648424      -24.2879805375      -25.4108120355  HPTSH     13              0.0000000000
     13325       687  HPTSH     H7             29.8510458704      -24.0022593361      -23.4771356949  HPTSH     13              0.0000000000
     13326       687  HPTSH     LPO11          22.6594726557      -20.8092492994      -21.6194490398  HPTSH     13              0.0000000000
     13327       687  HPTSH     LPO12          22.2532078404      -20.8697782269      -21.1056727876  HPTSH     13              0.0000000000
     13328       687  HPTSH     LPO21          20.3011550477      -22.0366583244      -22.6220233973  HPTSH     13              0.0000000000
     13329       687  HPTSH     LPO22          20.2017513980      -21.9002935566      -21.9862526422  HPTSH     13              0.0000000000
     13330       687  HPTSH     LPO31          22.0605774047      -23.6358156116      -21.2094018297  HPTSH     13              0.0000000000
     13331       687  HPTSH     LPO32          21.7537048904      -23.2785313026      -20.7502089824  HPTSH     13              0.0000000000
     13332       687  HPTSH     LPO41          19.8232468489      -22.6286882787      -26.8038696690  HPTSH     13              0.0000000000
     13333       687  HPTSH     LPO42          19.6131870775      -22.6683401309      -27.4259496571  HPTSH     13              0.0000000000
     13334       687  HPTSH     LPO51          21.5188230594      -24.5502344946      -28.0025054217  HPTSH     13              0.0000000000
     13335       687  HPTSH     LPO52          21.0994596776      -24.3689627844      -28.4757451174  HPTSH     13              0.0000000000
     13336       687  HPTSH     LPO61          21.9768359735      -21.7909748150      -28.5057955536  HPTSH     13              0.0000000000
     13337       687  HPTSH     LPO62          21.4755399048      -21.9623358687      -28.8956910901  HPTSH     13              0.0000000000
     13338       687  HPTSH     LPO71          29.0832217014      -23.4070707027      -23.0018808988  HPTSH     13              0.0000000000
     13339       687  HPTSH     LPO72          28.9531781970      -24.0393388544      -22.8753638648  HPTSH     13              0.0000000000
     13340       687  HPTSH     LPO81          30.3007393502      -24.7154751599      -27.3849729262  HPTSH     13              0.0000000000
     13341       687  HPTSH     LPO82          30.4360340728      -24.8520039699      -28.0140485263  HPTSH     13              0.0000000000
     13342       687  HPTSH     LPO91          27.9472751188      -25.9629509355      -28.3671170435  HPTSH     13              0.0000000000
     13343       687  HPTSH     LPO92          28.3531581892      -25.9497603545      -28.8845779892  HPTSH     13              0.0000000000
     13344       687  HPTSH     LPO101         28.4476325760      -23.1723653411      -28.8222166618  HPTSH     13              0.0000000000
     13345       687  HPTSH     LPO102         28.7912238946      -23.4842725135      -29.2884138412  HPTSH     13              0.0000000000
     13346       688  HPTSH     C1             -4.5410757214        3.4832413963       -8.2698496179  HPTSH     14              0.0000000000
     13347       688  HPTSH     DC1            -4.6065535552        3.4641512073       -8.2364132982  HPTSH     14              0.0000000000
     13348       688  HPTSH     C2             -5.5703644040        3.7081993927       -7.3599503805  HPTSH     14              0.0000000000
     13349       688  HPTSH     DC2            -5.6125662814        3.7502193957       -7.2894382711  HPTSH     14              0.0000000000
     13350       688  HPTSH     C3             -5.5346579644        4.7902946274       -6.4794217135  HPTSH     14              0.0000000000
     13351       688  HPTSH     DC3            -5.4410919140        4.8607910587       -6.4739092036  HPTSH     14              0.0000000000
     13352       688  HPTSH     C4             -4.4061835182        5.6439869221       -6.4903164439  HPTSH     14              0.0000000000
     13353       688  HPTSH     DC4            -4.3607132855        5.6870213836       -6.4840671351  HPTSH     14              0.0000000000
     13354       688  HPTSH     C5             -4.3138487834        6.7495678623       -5.6075949670  HPTSH     14              0.0000000000
     13355       688  HPTSH     DC5            -4.2516891181        6.7619469360       -5.6382227252  HPTSH     14              0.0000000000
     13356       688  HPTSH     C6             -5.3759638963        7.0412515473       -4.7290006461  HPTSH     14              0.0000000000
     13357       688  HPTSH     DC6            -5.3445532415        7.0649501985       -4.7311172151  HPTSH     14              0.0000000000
     13358       688  HPTSH     C7             -6.5141014399        6.1921797034       -4.7664790777  HPTSH     14              0.0000000000
     13359       688  HPTSH     DC7            -6.4656198582        6.2052287013       -4.7915764807  HPTSH     14              0.0000000000
     13360       688  HPTSH     C8             -6.6204828439        5.0661097711       -5.6186634916  HPTSH     14              0.0000000000
     13361       688  HPTSH     DC8            -6.6214167277        5.0650440830       -5.6121582552  HPTSH     14              0.0000000000
     13362       688  HPTSH     S1             -8.1639652667        3.9605803042       -5.5894868813  HPTSH     14              0.0000000000
     13363       688  HPTSH     DS1            -8.1637791593        3.9764440550       -5.5754492326  HPTSH     14              0.0000000000
     13364       688  HPTSH     O1             -7.7279342848        2.5686782595       -5.2393432468  HPTSH     14              0.0000000000
     13365       688  HPTSH     DO1            -7.7360281215        2.5677778463       -5.2437986047  HPTSH     14              0.0000000000
     13366       688  HPTSH     O2             -9.0502365321        4.5496021819       -4.5291915352  HPTSH     14              0.0000000000
     13367       688  HPTSH     DO2            -9.0589494355        4.5589071075       -4.5262992915  HPTSH     14              0.0000000000
     13368       688  HPTSH     O3             -8.9265457243        3.9704341864       -6.8751926766  HPTSH     14              0.0000000000
     13369       688  HPTSH     DO3            -8.9370600681        3.9644113223       -6.8588741271  HPTSH     14              0.0000000000
     13370       688  HPTSH     S2             -5.3573738607        8.5145554386       -3.5744620230  HPTSH     14              0.0000000000
     13371       688  HPTSH     DS2            -5.3633493031        8.5214748703       -3.5744956985  HPTSH     14              0.0000000000
     13372       688  HPTSH     O4             -6.5917624576        8.3850286988       -2.7854985341  HPTSH     14              0.0000000000
     13373       688  HPTSH     DO4            -6.5849149666        8.3891091882       -2.7762351031  HPTSH     14              0.0000000000
     13374       688  HPTSH     O5             -5.3703447870        9.8223963002       -4.3287063701  HPTSH     14              0.0000000000
     13375       688  HPTSH     DO5            -5.3746235060        9.8394564416       -4.3290884298  HPTSH     14              0.0000000000
     13376       688  HPTSH     O6             -4.1606589786        8.4050379136       -2.6768897270  HPTSH     14              0.0000000000
     13377       688  HPTSH     DO6            -4.1651013418        8.4148670001       -2.6675710526  HPTSH     14              0.0000000000
     13378       688  HPTSH     C9             -3.1967582344        7.5807218709       -5.6807951330  HPTSH     14              0.0000000000
     13379       688  HPTSH     DC9            -3.1561058481        7.6141316877       -5.6925529613  HPTSH     14              0.0000000000
     13380       688  HPTSH     C10            -2.1547231756        7.3300909098       -6.5604508356  HPTSH     14              0.0000000000
     13381       688  HPTSH     DC10           -2.1057809850        7.2889651722       -6.6192561968  HPTSH     14              0.0000000000
     13382       688  HPTSH     C11            -2.1972981039        6.2352473307       -7.4183096789  HPTSH     14              0.0000000000
     13383       688  HPTSH     DC11           -2.1914437478        6.1913090100       -7.4591278748  HPTSH     14              0.0000000000
     13384       688  HPTSH     C12            -1.1742043538        5.9904340445       -8.3446593830  HPTSH     14              0.0000000000
     13385       688  HPTSH     DC12           -1.1240705287        5.9612704777       -8.4098945697  HPTSH     14              0.0000000000
     13386       688  HPTSH     C13            -1.3014195659        4.9217128583       -9.2512305392  HPTSH     14              0.0000000000
     13387       688  HPTSH     DC13           -1.3633285196        4.7858770175       -9.3228955506  HPTSH     14              0.0000000000
     13388       688  HPTSH     C14            -2.3999691642        4.0984644545       -9.2170647306  HPTSH     14              0.0000000000
     13389       688  HPTSH     DC14           -2.4437921532        4.0827269701       -9.1899030159  HPTSH     14              0.0000000000
     13390       688  HPTSH     C15            -3.4329347134        4.3195177972       -8.3005241073  HPTSH     14              0.0000000000
     13391       688  HPTSH     DC15           -3.4715750125        4.2601918933       -8.3260716740  HPTSH     14              0.0000000000
     13392       688  HPTSH     C16            -3.3479780907        5.4017430477       -7.3974182149  HPTSH     14              0.0000000000
     13393       688  HPTSH     DC16           -3.3033140261        5.3950852653       -7.4453068281  HPTSH     14              0.0000000000
     13394       688  HPTSH     O7             -2.3579840070        3.0306888188      -10.1039566887  HPTSH     14              0.0000000000
     13395       688  HPTSH     DO7            -2.3443589845        3.0104045235      -10.1188761885  HPTSH     14              0.0000000000
     13396       688  HPTSH     S3              0.2904033308        7.1050775008       -8.5167448640  HPTSH     14              0.0000000000
     13397       688  HPTSH     DS3             0.3014787884        7.0890377270       -8.5212022465  HPTSH     14              0.0000000000
     13398       688  HPTSH     O8              1.0861248294        6.4229827096       -9.6009949741  HPTSH     14              0.0000000000
     13399       688  HPTSH     DO8             1.0938364969        6.4046668575       -9.6077940492  HPTSH     14              0.0000000000
     13400       688  HPTSH     O9             -0.1108309780        8.4739570950       -8.9443530600  HPTSH     14              0.0000000000
     13401       688  HPTSH     DO9            -0.0943560610        8.4614714871       -8.9377134148  HPTSH     14              0.0000000000
     13402       688  HPTSH     O10             1.0599122455        7.1284642008       -7.2239869268  HPTSH     14              0.0000000000
     13403       688  HPTSH     DO10            1.0674980427        7.1276875889       -7.2229438899  HPTSH     14              0.0000000000
     13404       688  HPTSH     H1             -4.6033564784        2.6623569006       -8.9688987951  HPTSH     14              0.0000000000
     13405       688  HPTSH     H2             -6.4314689093        3.0571244368       -7.3915799994  HPTSH     14              0.0000000000
     13406       688  HPTSH     H3             -7.3469718030        6.4039172748       -4.1123428846  HPTSH     14              0.0000000000
     13407       688  HPTSH     H4             -3.1468080087        8.4543981537       -5.0478696019  HPTSH     14              0.0000000000
     13408       688  HPTSH     H5             -1.3284236509        8.0250967144       -6.5848644999  HPTSH     14              0.0000000000
     13409       688  HPTSH     H6             -0.4937301508        4.7279129812       -9.9415054239  HPTSH     14              0.0000000000
     13410       688  HPTSH     H7             -1.5053547023        3.2273285873      -10.5225926526  HPTSH     14              0.0000000000
     13411       688  HPTSH     LPO11          -7.3812685730        2.5602039206       -5.1918978062  HPTSH     14              0.0000000000
     13412       688  HPTSH     LPO12          -8.0050071298        2.3549976193       -5.2309038986  HPTSH     14              0.0000000000
     13413       688  HPTSH     LPO21          -8.8965304195        4.8299984394       -4.3868807144  HPTSH     14              0.0000000000
     13414       688  HPTSH     LPO22          -9.3451912976        4.3630807344       -4.5025187782  HPTSH     14              0.0000000000
     13415       688  HPTSH     LPO31          -8.7689444092        4.1808607670       -7.1062391646  HPTSH     14              0.0000000000
     13416       688  HPTSH     LPO32          -9.2062789468        3.7615857650       -6.8500598066  HPTSH     14              0.0000000000
     13417       688  HPTSH     LPO41          -6.7678670185        8.0993209369       -2.8847872970  HPTSH     14              0.0000000000
     13418       688  HPTSH     LPO42          -6.6166031753        8.6496508910       -2.5577749426  HPTSH     14              0.0000000000
     13419       688  HPTSH     LPO51          -5.3760324261        9.7617631045       -4.6733674592  HPTSH     14              0.0000000000
     13420       688  HPTSH     LPO52          -5.3667139897       10.0904180487       -4.1036482451  HPTSH     14              0.0000000000
     13421       688  HPTSH     LPO61          -3.9801067262        8.1150142561       -2.7529631276  HPTSH     14              0.0000000000
     13422       688  HPTSH     LPO62          -4.1501939551        8.6775805992       -2.4575476020  HPTSH     14              0.0000000000
     13423       688  HPTSH     LPO71          -2.2662909706        2.7521793589       -9.9128418860  HPTSH     14              0.0000000000
     13424       688  HPTSH     LPO72          -2.5730383243        3.1167835128      -10.3663292183  HPTSH     14              0.0000000000
     13425       688  HPTSH     LPO81           0.9203290475        6.1335807635       -9.7070999799  HPTSH     14              0.0000000000
     13426       688  HPTSH     LPO82           1.3782525802        6.6040925232       -9.6670299086  HPTSH     14              0.0000000000
     13427       688  HPTSH     LPO91          -0.4582960348        8.4902268727       -8.9831258414  HPTSH     14              0.0000000000
     13428       688  HPTSH     LPO92           0.1721281825        8.6777602360       -8.9743262693  HPTSH     14              0.0000000000
     13429       688  HPTSH     LPO101          0.9043357165        6.9216933536       -6.9883139322  HPTSH     14              0.0000000000
     13430       688  HPTSH     LPO102          1.3379316213        7.3389562967       -7.2539586500  HPTSH     14              0.0000000000
     13431       689  HPTSH     C1             -3.8387924773       29.1143855692       17.0431009694  HPTSH     15              0.0000000000
     13432       689  HPTSH     DC1            -3.7902103744       29.2058741327       17.0307122416  HPTSH     15              0.0000000000
     13433       689  HPTSH     C2             -3.7642515941       30.4375102903       16.6274367813  HPTSH     15              0.0000000000
     13434       689  HPTSH     DC2            -3.7983786151       30.5361108856       16.5840907019  HPTSH     15              0.0000000000
     13435       689  HPTSH     C3             -4.8306145101       31.0521206057       15.9756644139  HPTSH     15              0.0000000000
     13436       689  HPTSH     DC3            -4.9297091589       31.0018808643       15.9473871371  HPTSH     15              0.0000000000
     13437       689  HPTSH     C4             -6.0073353868       30.3043310566       15.7405142481  HPTSH     15              0.0000000000
     13438       689  HPTSH     DC4            -6.0623068977       30.2867259419       15.7259918730  HPTSH     15              0.0000000000
     13439       689  HPTSH     C5             -7.1136137586       30.8848102427       15.0700045529  HPTSH     15              0.0000000000
     13440       689  HPTSH     DC5            -7.1401903713       30.8276724566       15.0666667217  HPTSH     15              0.0000000000
     13441       689  HPTSH     C6             -7.0697595329       32.2335996403       14.6267020953  HPTSH     15              0.0000000000
     13442       689  HPTSH     DC6            -7.1083136821       32.2199358800       14.6016917755  HPTSH     15              0.0000000000
     13443       689  HPTSH     C7             -5.8794088689       32.9575741892       14.8843537787  HPTSH     15              0.0000000000
     13444       689  HPTSH     DC7            -5.9148019151       32.9091527098       14.8705843704  HPTSH     15              0.0000000000
     13445       689  HPTSH     C8             -4.7644352964       32.3953659997       15.5466263222  HPTSH     15              0.0000000000
     13446       689  HPTSH     DC8            -4.7727661424       32.4088529938       15.5421884986  HPTSH     15              0.0000000000
     13447       689  HPTSH     S1             -3.2486039686       33.4406637396       15.9133917766  HPTSH     15              0.0000000000
     13448       689  HPTSH     DS1            -3.2639626738       33.4450461849       15.9078494603  HPTSH     15              0.0000000000
     13449       689  HPTSH     O1             -2.0532827906       32.8497825134       15.2269177516  HPTSH     15              0.0000000000
     13450       689  HPTSH     DO1            -2.0507281023       32.8612307013       15.2413869792  HPTSH     15              0.0000000000
     13451       689  HPTSH     O2             -3.5441870249       34.8044853639       15.3839330494  HPTSH     15              0.0000000000
     13452       689  HPTSH     DO2            -3.5522673451       34.8062721520       15.3871179164  HPTSH     15              0.0000000000
     13453       689  HPTSH     O3             -3.0974732834       33.5079404733       17.4036198146  HPTSH     15              0.0000000000
     13454       689  HPTSH     DO3            -3.0916546029       33.5104033241       17.4036069542  HPTSH     15              0.0000000000
     13455       689  HPTSH     S2             -8.5327292887       33.1056082167       13.8443774078  HPTSH     15              0.0000000000
     13456       689  HPTSH     DS2            -8.5349183155       33.1109683314       13.8212479400  HPTSH     15              0.0000000000
     13457       689  HPTSH     O4             -8.0861726307       34.4619430004       13.3729746360  HPTSH     15              0.0000000000
     13458       689  HPTSH     DO4            -8.0746517928       34.4521389354       13.3448737464  HPTSH     15              0.0000000000
     13459       689  HPTSH     O5             -9.7138896260       33.1095790218       14.7614367991  HPTSH     15              0.0000000000
     13460       689  HPTSH     DO5            -9.7242460529       33.0917425348       14.7341618419  HPTSH     15              0.0000000000
     13461       689  HPTSH     O6             -8.9176318152       32.3054649636       12.6311569190  HPTSH     15              0.0000000000
     13462       689  HPTSH     DO6            -8.9408342992       32.2983618371       12.6130356577  HPTSH     15              0.0000000000
     13463       689  HPTSH     C9             -8.2484089242       30.1035095605       14.8762436479  HPTSH     15              0.0000000000
     13464       689  HPTSH     DC9            -8.3067716055       30.0824293799       14.8575119194  HPTSH     15              0.0000000000
     13465       689  HPTSH     C10            -8.3283519563       28.7840592186       15.3149767134  HPTSH     15              0.0000000000
     13466       689  HPTSH     DC10           -8.3311098231       28.7249331888       15.3362736939  HPTSH     15              0.0000000000
     13467       689  HPTSH     C11            -7.2609243395       28.1816764043       15.9727452730  HPTSH     15              0.0000000000
     13468       689  HPTSH     DC11           -7.2256833199       28.1784728654       15.9892317672  HPTSH     15              0.0000000000
     13469       689  HPTSH     C12            -7.3291294380       26.8414559873       16.4196723969  HPTSH     15              0.0000000000
     13470       689  HPTSH     DC12           -7.3278995697       26.7892000911       16.4397641108  HPTSH     15              0.0000000000
     13471       689  HPTSH     C13            -6.2004446274       26.2784621842       17.0580319238  HPTSH     15              0.0000000000
     13472       689  HPTSH     DC13           -6.0716179975       26.2833980912       17.1095611569  HPTSH     15              0.0000000000
     13473       689  HPTSH     C14            -5.0587633140       27.0315879580       17.2522124561  HPTSH     15              0.0000000000
     13474       689  HPTSH     DC14           -5.0482429013       27.0874924319       17.2407180218  HPTSH     15              0.0000000000
     13475       689  HPTSH     C15            -4.9856397692       28.3626771622       16.8264205941  HPTSH     15              0.0000000000
     13476       689  HPTSH     DC15           -4.9033674190       28.3868539497       16.8520967069  HPTSH     15              0.0000000000
     13477       689  HPTSH     C16            -6.0875069461       28.9543149823       16.1790990918  HPTSH     15              0.0000000000
     13478       689  HPTSH     DC16           -6.0847111492       28.8978019868       16.2018598913  HPTSH     15              0.0000000000
     13479       689  HPTSH     O7             -4.0063660072       26.4082890067       17.9163570833  HPTSH     15              0.0000000000
     13480       689  HPTSH     DO7            -3.9999110244       26.4006939752       17.9259774063  HPTSH     15              0.0000000000
     13481       689  HPTSH     S3             -8.8244497869       25.7586205698       16.1774611770  HPTSH     15              0.0000000000
     13482       689  HPTSH     DS3            -8.8261302413       25.7597962956       16.1848731923  HPTSH     15              0.0000000000
     13483       689  HPTSH     O8             -8.4860378426       24.4210052954       16.7801835748  HPTSH     15              0.0000000000
     13484       689  HPTSH     DO8            -8.4842259588       24.4256202696       16.7847802788  HPTSH     15              0.0000000000
     13485       689  HPTSH     O9            -10.0115977008       26.3969108831       16.8490969854  HPTSH     15              0.0000000000
     13486       689  HPTSH     DO9           -10.0316789714       26.3966710602       16.8403250894  HPTSH     15              0.0000000000
     13487       689  HPTSH     O10            -9.0993959487       25.6554752531       14.7189415321  HPTSH     15              0.0000000000
     13488       689  HPTSH     DO10           -9.1164379036       25.6608528903       14.7265093461  HPTSH     15              0.0000000000
     13489       689  HPTSH     H1             -3.0030211618       28.6511174021       17.5463592664  HPTSH     15              0.0000000000
     13490       689  HPTSH     H2             -2.8486925387       30.9784562425       16.8159284068  HPTSH     15              0.0000000000
     13491       689  HPTSH     H3             -5.8027594786       33.9996559429       14.6112411805  HPTSH     15              0.0000000000
     13492       689  HPTSH     H4             -9.0953026859       30.5536010356       14.3796667452  HPTSH     15              0.0000000000
     13493       689  HPTSH     H5             -9.2311686522       28.2187639167       15.1367542816  HPTSH     15              0.0000000000
     13494       689  HPTSH     H6             -6.2420140590       25.2561679630       17.4038447463  HPTSH     15              0.0000000000
     13495       689  HPTSH     H7             -4.3446717773       25.5062989503       18.0297728851  HPTSH     15              0.0000000000
     13496       689  HPTSH     LPO11          -2.1465542253       32.5622670252       15.0504658218  HPTSH     15              0.0000000000
     13497       689  HPTSH     LPO12          -1.7691920819       33.0429706118       15.2937820012  HPTSH     15              0.0000000000
     13498       689  HPTSH     LPO21          -3.8634245820       34.8106513980       15.2405825621  HPTSH     15              0.0000000000
     13499       689  HPTSH     LPO22          -3.2723627904       35.0170846249       15.4423551320  HPTSH     15              0.0000000000
     13500       689  HPTSH     LPO31          -3.3533718888       33.3259736583       17.5582289412  HPTSH     15              0.0000000000
     13501       689  HPTSH     LPO32          -2.8174428571       33.7006497136       17.4869631347  HPTSH     15              0.0000000000
     13502       689  HPTSH     LPO41          -7.7469360490       34.5082191453       13.4456180122  HPTSH     15              0.0000000000
     13503       689  HPTSH     LPO42          -8.3543125249       34.6316101370       13.2252788004  HPTSH     15              0.0000000000
     13504       689  HPTSH     LPO51          -9.6338840151       32.9460938730       15.0603878124  HPTSH     15              0.0000000000
     13505       689  HPTSH     LPO52          -9.9830023131       33.2736999076       14.6093095612  HPTSH     15              0.0000000000
     13506       689  HPTSH     LPO61          -8.7055308093       32.0290558594       12.5978226963  HPTSH     15              0.0000000000
     13507       689  HPTSH     LPO62          -9.1910269764       32.4544545227       12.4712907341  HPTSH     15              0.0000000000
     13508       689  HPTSH     LPO71          -3.7653423733       26.3445179907       17.6707133059  HPTSH     15              0.0000000000
     13509       689  HPTSH     LPO72          -4.0285599729       26.5159125768       18.2486590470  HPTSH     15              0.0000000000
     13510       689  HPTSH     LPO81          -8.1617651192       24.4275727606       16.9117285071  HPTSH     15              0.0000000000
     13511       689  HPTSH     LPO82          -8.7564998786       24.2017443991       16.7444771824  HPTSH     15              0.0000000000
     13512       689  HPTSH     LPO91          -9.9165144603       26.6986477312       16.9988102176  HPTSH     15              0.0000000000
     13513       689  HPTSH     LPO92         -10.2954146057       26.1966499071       16.8061609171  HPTSH     15              0.0000000000
     13514       689  HPTSH     LPO101         -8.8633716681       25.8411839097       14.5392060771  HPTSH     15              0.0000000000
     13515       689  HPTSH     LPO102         -9.3796644205       25.4531685066       14.6639727766  HPTSH     15              0.0000000000
     13516       690  HPTSH     C1            -13.2060474861       27.9968670448      -11.0873738365  HPTSH     16              0.0000000000
     13517       690  HPTSH     DC1           -13.2970884545       27.9763826416      -11.0330571489  HPTSH     16              0.0000000000
     13518       690  HPTSH     C2            -14.3900430789       28.4971290393      -10.5581299138  HPTSH     16              0.0000000000
     13519       690  HPTSH     DC2           -14.4660655798       28.5634207245      -10.5326522134  HPTSH     16              0.0000000000
     13520       690  HPTSH     C3            -14.8102624895       29.7979901131      -10.8277087468  HPTSH     16              0.0000000000
     13521       690  HPTSH     DC3           -14.7470587845       29.8658409538      -10.8879635791  HPTSH     16              0.0000000000
     13522       690  HPTSH     C4            -13.9920328398       30.6211301543      -11.6397110317  HPTSH     16              0.0000000000
     13523       690  HPTSH     DC4           -13.9644496753       30.6600207266      -11.6673862137  HPTSH     16              0.0000000000
     13524       690  HPTSH     C5            -14.3843663704       31.9486090817      -11.9571678581  HPTSH     16              0.0000000000
     13525       690  HPTSH     DC5           -14.3196949334       31.9531031626      -11.9870088897  HPTSH     16              0.0000000000
     13526       690  HPTSH     C6            -15.6268465562       32.4608528439      -11.5047218374  HPTSH     16              0.0000000000
     13527       690  HPTSH     DC6           -15.6030045797       32.4885168280      -11.5267518607  HPTSH     16              0.0000000000
     13528       690  HPTSH     C7            -16.4177295569       31.6117242980      -10.6882969593  HPTSH     16              0.0000000000
     13529       690  HPTSH     DC7           -16.3616622749       31.6291360789      -10.6972102351  HPTSH     16              0.0000000000
     13530       690  HPTSH     C8            -16.0310547675       30.2964447329      -10.3221478137  HPTSH     16              0.0000000000
     13531       690  HPTSH     DC8           -16.0325734557       30.2975474082      -10.3148864465  HPTSH     16              0.0000000000
     13532       690  HPTSH     S1            -17.1529733905       29.2198683224       -9.2463207564  HPTSH     16              0.0000000000
     13533       690  HPTSH     DS1           -17.1557168640       29.2349397438       -9.2453650881  HPTSH     16              0.0000000000
     13534       690  HPTSH     O1            -16.3633948112       28.7636822195       -8.0509675476  HPTSH     16              0.0000000000
     13535       690  HPTSH     DO1           -16.3640182220       28.7622483147       -8.0463570088  HPTSH     16              0.0000000000
     13536       690  HPTSH     O2            -18.2816758584       30.1025291045       -8.7880922686  HPTSH     16              0.0000000000
     13537       690  HPTSH     DO2           -18.2868700657       30.1102921032       -8.7930270866  HPTSH     16              0.0000000000
     13538       690  HPTSH     O3            -17.6590676270       28.0741836452      -10.0760034009  HPTSH     16              0.0000000000
     13539       690  HPTSH     DO3           -17.6643097952       28.0757661710      -10.0683937025  HPTSH     16              0.0000000000
     13540       690  HPTSH     S2            -16.2692173634       34.1729760966      -11.9643270240  HPTSH     16              0.0000000000
     13541       690  HPTSH     DS2           -16.2814314606       34.1830230601      -11.9490397391  HPTSH     16              0.0000000000
     13542       690  HPTSH     O4            -17.6520841308       34.3735859920      -11.4071282591  HPTSH     16              0.0000000000
     13543       690  HPTSH     DO4           -17.6736776222       34.3957742808      -11.4042667424  HPTSH     16              0.0000000000
     13544       690  HPTSH     O5            -16.2989007268       34.3410417526      -13.4530652394  HPTSH     16              0.0000000000
     13545       690  HPTSH     DO5           -16.2979484161       34.3578296710      -13.4453126993  HPTSH     16              0.0000000000
     13546       690  HPTSH     O6            -15.3119759685       35.1709550817      -11.3572417809  HPTSH     16              0.0000000000
     13547       690  HPTSH     DO6           -15.3044511710       35.1880063036      -11.3545017347  HPTSH     16              0.0000000000
     13548       690  HPTSH     C9            -13.5322441642       32.7163497315      -12.7483485463  HPTSH     16              0.0000000000
     13549       690  HPTSH     DC9           -13.4917815872       32.7509565017      -12.7691665555  HPTSH     16              0.0000000000
     13550       690  HPTSH     C10           -12.3191841293       32.2265054419      -13.2267376923  HPTSH     16              0.0000000000
     13551       690  HPTSH     DC10          -12.2497348740       32.1914729673      -13.2334041600  HPTSH     16              0.0000000000
     13552       690  HPTSH     C11           -11.9054646457       30.9291740264      -12.9396647306  HPTSH     16              0.0000000000
     13553       690  HPTSH     DC11          -11.8976656666       30.8899871516      -12.9218423231  HPTSH     16              0.0000000000
     13554       690  HPTSH     C12           -10.6781037404       30.4202502921      -13.4225673779  HPTSH     16              0.0000000000
     13555       690  HPTSH     DC12          -10.6211189737       30.4073439082      -13.4367200812  HPTSH     16              0.0000000000
     13556       690  HPTSH     C13           -10.3223564992       29.0882817589      -13.1035140453  HPTSH     16              0.0000000000
     13557       690  HPTSH     DC13          -10.3396583550       28.9770407465      -13.0485940544  HPTSH     16              0.0000000000
     13558       690  HPTSH     C14           -11.1491074538       28.2989274960      -12.3234662283  HPTSH     16              0.0000000000
     13559       690  HPTSH     DC14          -11.1961593666       28.3195580468      -12.3027736363  HPTSH     16              0.0000000000
     13560       690  HPTSH     C15           -12.3751858155       28.7942832094      -11.8596265432  HPTSH     16              0.0000000000
     13561       690  HPTSH     DC15          -12.4130906828       28.7190219076      -11.8139816121  HPTSH     16              0.0000000000
     13562       690  HPTSH     C16           -12.7628963600       30.1182906310      -12.1475614309  HPTSH     16              0.0000000000
     13563       690  HPTSH     DC16          -12.7058701787       30.0915562597      -12.1640379591  HPTSH     16              0.0000000000
     13564       690  HPTSH     O7            -10.7017657929       27.0072388859      -12.0050871400  HPTSH     16              0.0000000000
     13565       690  HPTSH     DO7           -10.6982252524       27.0059462235      -12.0003224605  HPTSH     16              0.0000000000
     13566       690  HPTSH     S3             -9.4750779499       31.4099912982      -14.4466745292  HPTSH     16              0.0000000000
     13567       690  HPTSH     DS3            -9.4652743954       31.4144935420      -14.4397968361  HPTSH     16              0.0000000000
     13568       690  HPTSH     O8             -8.2974045788       30.5189965338      -14.7040755898  HPTSH     16              0.0000000000
     13569       690  HPTSH     DO8            -8.2892668043       30.5258748935      -14.6946455822  HPTSH     16              0.0000000000
     13570       690  HPTSH     O9            -10.1236487352       31.8866724384      -15.7173788478  HPTSH     16              0.0000000000
     13571       690  HPTSH     DO9           -10.1187251251       31.8941859335      -15.7188315608  HPTSH     16              0.0000000000
     13572       690  HPTSH     O10            -9.0238635146       32.5483642009      -13.5764242190  HPTSH     16              0.0000000000
     13573       690  HPTSH     DO10           -9.0174093160       32.5580550748      -13.5596006917  HPTSH     16              0.0000000000
     13574       690  HPTSH     H1            -12.8851223448       26.9914536838      -10.8581337283  HPTSH     16              0.0000000000
     13575       690  HPTSH     H2            -14.9981906638       27.8391148841       -9.9551590301  HPTSH     16              0.0000000000
     13576       690  HPTSH     H3            -17.4219839805       31.9128631011      -10.4290895638  HPTSH     16              0.0000000000
     13577       690  HPTSH     H4            -13.8353509369       33.7174356987      -13.0173339933  HPTSH     16              0.0000000000
     13578       690  HPTSH     H5            -11.7105097860       32.8664358793      -13.8483521862  HPTSH     16              0.0000000000
     13579       690  HPTSH     H6             -9.3826912826       28.6884885521      -13.4550743852  HPTSH     16              0.0000000000
     13580       690  HPTSH     H7             -9.9273224354       26.8696440432      -12.5727183102  HPTSH     16              0.0000000000
     13581       690  HPTSH     LPO11         -16.0379868163       28.8916180994       -8.0665254234  HPTSH     16              0.0000000000
     13582       690  HPTSH     LPO12         -16.5630691537       28.5631025948       -7.8450598715  HPTSH     16              0.0000000000
     13583       690  HPTSH     LPO21         -18.2411458469       30.4253507979       -8.9171018514  HPTSH     16              0.0000000000
     13584       690  HPTSH     LPO22         -18.5018379041       29.9201821211       -8.5861560131  HPTSH     16              0.0000000000
     13585       690  HPTSH     LPO31         -17.5308245603       28.0958711616      -10.4009393446  HPTSH     16              0.0000000000
     13586       690  HPTSH     LPO32         -17.8679609782       27.8699218404       -9.8832842195  HPTSH     16              0.0000000000
     13587       690  HPTSH     LPO41         -17.7535505202       34.0875638090      -11.2327841090  HPTSH     16              0.0000000000
     13588       690  HPTSH     LPO42         -17.7706996792       34.6915350501      -11.4927947527  HPTSH     16              0.0000000000
     13589       690  HPTSH     LPO51         -16.1840621724       34.0493785539      -13.6087722880  HPTSH     16              0.0000000000
     13590       690  HPTSH     LPO52         -16.4184818031       34.6595568624      -13.5352144390  HPTSH     16              0.0000000000
     13591       690  HPTSH     LPO61         -15.0569186692       35.0032801744      -11.1859791184  HPTSH     16              0.0000000000
     13592       690  HPTSH     LPO62         -15.4152845071       35.4968367641      -11.4322649433  HPTSH     16              0.0000000000
     13593       690  HPTSH     LPO71         -10.5340408112       27.0395472594      -11.6995965517  HPTSH     16              0.0000000000
     13594       690  HPTSH     LPO72         -10.9220042523       26.7896502829      -12.1683360936  HPTSH     16              0.0000000000
     13595       690  HPTSH     LPO81          -8.3477811476       30.2073543406      -14.5529420569  HPTSH     16              0.0000000000
     13596       690  HPTSH     LPO82          -8.0589365711       30.6883340002      -14.8963197880  HPTSH     16              0.0000000000
     13597       690  HPTSH     LPO91         -10.4558837180       31.7773679318      -15.7305105276  HPTSH     16              0.0000000000
     13598       690  HPTSH     LPO92          -9.8946440558       32.0718482915      -15.9064998680  HPTSH     16              0.0000000000
     13599       690  HPTSH     LPO101         -9.1802660015       32.5294064162      -13.2638880379  HPTSH     16              0.0000000000
     13600       690  HPTSH     LPO102         -8.7955519088       32.7487421394      -13.7502703937  HPTSH     16              0.0000000000
     13601       691  HPTSH     C1              2.2490924076      -30.6032878298       -3.3837572847  HPTSH     17              0.0000000000
     13602       691  HPTSH     DC1             2.2598092991      -30.6787034892       -3.3942074432  HPTSH     17              0.0000000000
     13603       691  HPTSH     C2              3.1976903541      -31.5424624014       -2.9739270223  HPTSH     17              0.0000000000
     13604       691  HPTSH     DC2             3.2574774774      -31.5672914982       -2.9628093875  HPTSH     17              0.0000000000
     13605       691  HPTSH     C3              4.4082082447      -31.1469519564       -2.3885863826  HPTSH     17              0.0000000000
     13606       691  HPTSH     DC3             4.4089380600      -31.0425086986       -2.3891315034  HPTSH     17              0.0000000000
     13607       691  HPTSH     C4              4.6340604006      -29.7653341774       -2.1602062126  HPTSH     17              0.0000000000
     13608       691  HPTSH     DC4             4.6341220762      -29.7203866812       -2.1597659105  HPTSH     17              0.0000000000
     13609       691  HPTSH     C5              5.8370963862      -29.3166703894       -1.5469769635  HPTSH     17              0.0000000000
     13610       691  HPTSH     DC5             5.7955950669      -29.2547015444       -1.5719695553  HPTSH     17              0.0000000000
     13611       691  HPTSH     C6              6.8398625367      -30.2397100697       -1.1693030461  HPTSH     17              0.0000000000
     13612       691  HPTSH     DC6             6.8278791839      -30.2003542061       -1.1665841434  HPTSH     17              0.0000000000
     13613       691  HPTSH     C7              6.6150909401      -31.6113191238       -1.4752938254  HPTSH     17              0.0000000000
     13614       691  HPTSH     DC7             6.5936822230      -31.5604461647       -1.4949386593  HPTSH     17              0.0000000000
     13615       691  HPTSH     C8              5.3951413591      -32.0888649277       -2.0295728197  HPTSH     17              0.0000000000
     13616       691  HPTSH     DC8             5.3810368876      -32.0784857680       -2.0365586995  HPTSH     17              0.0000000000
     13617       691  HPTSH     S1              5.1064052406      -33.9405661573       -2.2340922024  HPTSH     17              0.0000000000
     13618       691  HPTSH     DS1             5.1217120656      -33.9252947690       -2.2423828873  HPTSH     17              0.0000000000
     13619       691  HPTSH     O1              5.0150755762      -34.1608085270       -3.7273470573  HPTSH     17              0.0000000000
     13620       691  HPTSH     DO1             5.0118169128      -34.1621414587       -3.7429604551  HPTSH     17              0.0000000000
     13621       691  HPTSH     O2              6.3099525600      -34.6143247614       -1.6529240831  HPTSH     17              0.0000000000
     13622       691  HPTSH     DO2             6.3105984655      -34.6027166311       -1.6557754502  HPTSH     17              0.0000000000
     13623       691  HPTSH     O3              3.8419062607      -34.3130744890       -1.5232247467  HPTSH     17              0.0000000000
     13624       691  HPTSH     DO3             3.8514659809      -34.3105843990       -1.5395271605  HPTSH     17              0.0000000000
     13625       691  HPTSH     S2              8.3575364351      -29.7352049634       -0.1613511178  HPTSH     17              0.0000000000
     13626       691  HPTSH     DS2             8.3551414558      -29.7346045508       -0.1722225820  HPTSH     17              0.0000000000
     13627       691  HPTSH     O4              9.0653283825      -30.9706068153        0.2577312528  HPTSH     17              0.0000000000
     13628       691  HPTSH     DO4             9.0601484652      -30.9610052139        0.2510493966  HPTSH     17              0.0000000000
     13629       691  HPTSH     O5              7.9039720915      -28.9386641048        1.0328257142  HPTSH     17              0.0000000000
     13630       691  HPTSH     DO5             7.9062854653      -28.9312791778        1.0313889697  HPTSH     17              0.0000000000
     13631       691  HPTSH     O6              9.2035647455      -28.8962759505       -1.0917911614  HPTSH     17              0.0000000000
     13632       691  HPTSH     DO6             9.2150902656      -28.8848568690       -1.0975451729  HPTSH     17              0.0000000000
     13633       691  HPTSH     C9              5.9791372525      -27.9507558976       -1.3041529516  HPTSH     17              0.0000000000
     13634       691  HPTSH     DC9             5.9773876295      -27.8926933959       -1.3082588767  HPTSH     17              0.0000000000
     13635       691  HPTSH     C10             5.0193642265      -27.0237883226       -1.6942080677  HPTSH     17              0.0000000000
     13636       691  HPTSH     DC10            4.9361132275      -26.9913143232       -1.7460064846  HPTSH     17              0.0000000000
     13637       691  HPTSH     C11             3.8552971924      -27.4208909208       -2.3398620150  HPTSH     17              0.0000000000
     13638       691  HPTSH     DC11            3.7844182911      -27.4267198489       -2.3829941897  HPTSH     17              0.0000000000
     13639       691  HPTSH     C12             2.8875882175      -26.4966366117       -2.7745626843  HPTSH     17              0.0000000000
     13640       691  HPTSH     DC12            2.7907762531      -26.4653826837       -2.8276925036  HPTSH     17              0.0000000000
     13641       691  HPTSH     C13             1.7328944962      -26.9539298575       -3.4141585822  HPTSH     17              0.0000000000
     13642       691  HPTSH     DC13            1.5901831212      -27.0768591035       -3.4999775079  HPTSH     17              0.0000000000
     13643       691  HPTSH     C14             1.5537656570      -28.2935418984       -3.6505988471  HPTSH     17              0.0000000000
     13644       691  HPTSH     DC14            1.5712995221      -28.3550553574       -3.6600490987  HPTSH     17              0.0000000000
     13645       691  HPTSH     C15             2.4752958198      -29.2469465233       -3.1941196202  HPTSH     17              0.0000000000
     13646       691  HPTSH     DC15            2.4306671736      -29.3130761220       -3.2216588786  HPTSH     17              0.0000000000
     13647       691  HPTSH     C16             3.6554037200      -28.8167626604       -2.5499292862  HPTSH     17              0.0000000000
     13648       691  HPTSH     DC16            3.6026512300      -28.7765202053       -2.5801974138  HPTSH     17              0.0000000000
     13649       691  HPTSH     O7              0.3797949828      -28.5644469609       -4.3179614321  HPTSH     17              0.0000000000
     13650       691  HPTSH     DO7             0.3410163314      -28.5588383646       -4.3503273229  HPTSH     17              0.0000000000
     13651       691  HPTSH     S3              3.0686969148      -24.6505235830       -2.5434542936  HPTSH     17              0.0000000000
     13652       691  HPTSH     DS3             3.0551805130      -24.6571625575       -2.5590038556  HPTSH     17              0.0000000000
     13653       691  HPTSH     O8              1.8157743318      -24.0877438212       -3.1944341696  HPTSH     17              0.0000000000
     13654       691  HPTSH     DO8             1.7934505762      -24.0970489895       -3.2093419030  HPTSH     17              0.0000000000
     13655       691  HPTSH     O9              3.0940242770      -24.3576747890       -1.0774507070  HPTSH     17              0.0000000000
     13656       691  HPTSH     DO9             3.0922449671      -24.3576506343       -1.0934476005  HPTSH     17              0.0000000000
     13657       691  HPTSH     O10             4.3009275259      -24.2043014053       -3.2841950953  HPTSH     17              0.0000000000
     13658       691  HPTSH     DO10            4.3002521850      -24.2032199881       -3.2853949731  HPTSH     17              0.0000000000
     13659       691  HPTSH     H1              1.3359020542      -30.9226941830       -3.8638228640  HPTSH     17              0.0000000000
     13660       691  HPTSH     H2              2.9975952153      -32.5906720923       -3.1401148059  HPTSH     17              0.0000000000
     13661       691  HPTSH     H3              7.3251534648      -32.3471904016       -1.1278680441  HPTSH     17              0.0000000000
     13662       691  HPTSH     H4              6.8644481369      -27.6053130561       -0.7910312494  HPTSH     17              0.0000000000
     13663       691  HPTSH     H5              5.2042479667      -25.9830679351       -1.4725798257  HPTSH     17              0.0000000000
     13664       691  HPTSH     H6              1.0089941924      -26.2134424578       -3.7208290258  HPTSH     17              0.0000000000
     13665       691  HPTSH     H7              0.0357850583      -27.6763799767       -4.1338576473  HPTSH     17              0.0000000000
     13666       691  HPTSH     LPO11           5.0546683181      -33.8566107531       -3.8958585678  HPTSH     17              0.0000000000
     13667       691  HPTSH     LPO12           4.9610230773      -34.4998761446       -3.7952549219  HPTSH     17              0.0000000000
     13668       691  HPTSH     LPO21           6.5348341627      -34.3746793685       -1.5325149868  HPTSH     17              0.0000000000
     13669       691  HPTSH     LPO22           6.2775867142      -34.9617425247       -1.6803713003  HPTSH     17              0.0000000000
     13670       691  HPTSH     LPO31           3.6995610826      -34.0294465570       -1.3756000658  HPTSH     17              0.0000000000
     13671       691  HPTSH     LPO32           3.7821132023      -34.6562502566       -1.5572127255  HPTSH     17              0.0000000000
     13672       691  HPTSH     LPO41           8.8959478731      -31.2522742492        0.1374245627  HPTSH     17              0.0000000000
     13673       691  HPTSH     LPO42           9.3488826015      -30.8882216883        0.4456399960  HPTSH     17              0.0000000000
     13674       691  HPTSH     LPO51           7.5552517087      -28.9087985471        1.0313617788  HPTSH     17              0.0000000000
     13675       691  HPTSH     LPO52           8.1805594531      -28.8418510569        1.2242066567  HPTSH     17              0.0000000000
     13676       691  HPTSH     LPO61           9.0478527508      -28.8699579919       -1.4041389479  HPTSH     17              0.0000000000
     13677       691  HPTSH     LPO62           9.4932643028      -28.7897306796       -0.9267994291  HPTSH     17              0.0000000000
     13678       691  HPTSH     LPO71           0.4536444649      -28.5382262655       -4.6590753854  HPTSH     17              0.0000000000
     13679       691  HPTSH     LPO72           0.1862755062      -28.7577769783       -4.0996183155  HPTSH     17              0.0000000000
     13680       691  HPTSH     LPO81           1.6194223254      -24.3482552788       -3.3212398085  HPTSH     17              0.0000000000
     13681       691  HPTSH     LPO82           1.8147756013      -23.7385876204       -3.1701658780  HPTSH     17              0.0000000000
     13682       691  HPTSH     LPO91           3.0643203895      -24.6551388617       -0.8954265203  HPTSH     17              0.0000000000
     13683       691  HPTSH     LPO92           3.1277836766      -24.0133186703       -1.0247329070  HPTSH     17              0.0000000000
     13684       691  HPTSH     LPO101          4.4535421747      -24.4786758278       -3.4388800824  HPTSH     17              0.0000000000
     13685       691  HPTSH     LPO102          4.3442840854      -23.8589608028       -3.2473158733  HPTSH     17              0.0000000000
     13686       692  HPTSH     C1            -19.9612353584       -3.9388296713       17.6331480286  HPTSH     18              0.0000000000
     13687       692  HPTSH     DC1           -19.9584322783       -3.9271298902       17.7137162293  HPTSH     18              0.0000000000
     13688       692  HPTSH     C2            -19.0340062638       -3.6188188433       18.6254094011  HPTSH     18              0.0000000000
     13689       692  HPTSH     DC2           -18.9709807195       -3.6145675358       18.6692773387  HPTSH     18              0.0000000000
     13690       692  HPTSH     C3            -17.6589537888       -3.6620939512       18.3753111985  HPTSH     18              0.0000000000
     13691       692  HPTSH     DC3           -17.6381116522       -3.6960631477       18.2839895373  HPTSH     18              0.0000000000
     13692       692  HPTSH     C4            -17.2155347543       -4.0168268480       17.0762185100  HPTSH     18              0.0000000000
     13693       692  HPTSH     DC4           -17.2005443034       -4.0388007304       17.0361660880  HPTSH     18              0.0000000000
     13694       692  HPTSH     C5            -15.8315668910       -4.0419506629       16.7672229785  HPTSH     18              0.0000000000
     13695       692  HPTSH     DC5           -15.8603561481       -4.0751243446       16.7192425095  HPTSH     18              0.0000000000
     13696       692  HPTSH     C6            -14.8741855422       -3.7597716433       17.7680043506  HPTSH     18              0.0000000000
     13697       692  HPTSH     DC6           -14.8700605587       -3.7650875266       17.7499649971  HPTSH     18              0.0000000000
     13698       692  HPTSH     C7            -15.3436723871       -3.4329195528       19.0681597944  HPTSH     18              0.0000000000
     13699       692  HPTSH     DC7           -15.3661949862       -3.4450962002       19.0307634052  HPTSH     18              0.0000000000
     13700       692  HPTSH     C8            -16.7180133687       -3.3611491512       19.3848130091  HPTSH     18              0.0000000000
     13701       692  HPTSH     DC8           -16.7320577891       -3.3667665865       19.3937737090  HPTSH     18              0.0000000000
     13702       692  HPTSH     S1            -17.2581748768       -2.8634811741       21.1087149836  HPTSH     18              0.0000000000
     13703       692  HPTSH     DS1           -17.2479357630       -2.8691555740       21.1127174980  HPTSH     18              0.0000000000
     13704       692  HPTSH     O1            -18.0043100629       -4.0282892414       21.7001225043  HPTSH     18              0.0000000000
     13705       692  HPTSH     DO1           -18.0070205217       -4.0299584536       21.7114544131  HPTSH     18              0.0000000000
     13706       692  HPTSH     O2            -16.0438857085       -2.5954952881       21.9494591156  HPTSH     18              0.0000000000
     13707       692  HPTSH     DO2           -16.0524076381       -2.6006745829       21.9599168079  HPTSH     18              0.0000000000
     13708       692  HPTSH     O3            -18.1296500184       -1.6479425255       21.0202128948  HPTSH     18              0.0000000000
     13709       692  HPTSH     DO3           -18.1332953473       -1.6559924439       21.0378177444  HPTSH     18              0.0000000000
     13710       692  HPTSH     S2            -13.0296274025       -3.8657023030       17.4566896638  HPTSH     18              0.0000000000
     13711       692  HPTSH     DS2           -13.0375466026       -3.8740482430       17.4793968277  HPTSH     18              0.0000000000
     13712       692  HPTSH     O4            -12.3837298056       -3.3921321212       18.7109737112  HPTSH     18              0.0000000000
     13713       692  HPTSH     DO4           -12.3917632502       -3.3979172810       18.7127425740  HPTSH     18              0.0000000000
     13714       692  HPTSH     O5            -12.6427775932       -3.0027018173       16.3128138236  HPTSH     18              0.0000000000
     13715       692  HPTSH     DO5           -12.6301559434       -3.0257241295       16.3380542291  HPTSH     18              0.0000000000
     13716       692  HPTSH     O6            -12.6807493912       -5.3007493655       17.2137711492  HPTSH     18              0.0000000000
     13717       692  HPTSH     DO6           -12.6712766433       -5.3111864539       17.2147250632  HPTSH     18              0.0000000000
     13718       692  HPTSH     C9            -15.4479557696       -4.4127335700       15.4742297797  HPTSH     18              0.0000000000
     13719       692  HPTSH     DC9           -15.4589698571       -4.4670150469       15.4510578853  HPTSH     18              0.0000000000
     13720       692  HPTSH     C10           -16.3762273305       -4.7607649185       14.4957886597  HPTSH     18              0.0000000000
     13721       692  HPTSH     DC10          -16.4793678412       -4.7904098582       14.4699281395  HPTSH     18              0.0000000000
     13722       692  HPTSH     C11           -17.7389891812       -4.7435957447       14.7618484780  HPTSH     18              0.0000000000
     13723       692  HPTSH     DC11          -17.8283296085       -4.7578556430       14.7599138072  HPTSH     18              0.0000000000
     13724       692  HPTSH     C12           -18.6937401045       -5.0688450976       13.7841135744  HPTSH     18              0.0000000000
     13725       692  HPTSH     DC12          -18.7880423971       -5.0960410550       13.7298553163  HPTSH     18              0.0000000000
     13726       692  HPTSH     C13           -20.0546256305       -4.9608436958       14.0879334301  HPTSH     18              0.0000000000
     13727       692  HPTSH     DC13          -20.2086637219       -4.9369675621       14.1763623259  HPTSH     18              0.0000000000
     13728       692  HPTSH     C14           -20.4641285307       -4.6428080124       15.3615161997  HPTSH     18              0.0000000000
     13729       692  HPTSH     DC14          -20.4615667747       -4.6535017661       15.4137475908  HPTSH     18              0.0000000000
     13730       692  HPTSH     C15           -19.5373846613       -4.3151299575       16.3649033425  HPTSH     18              0.0000000000
     13731       692  HPTSH     DC15          -19.5999741991       -4.3116801050       16.4190465849  HPTSH     18              0.0000000000
     13732       692  HPTSH     C16           -18.1570350606       -4.3564548417       16.0716272198  HPTSH     18              0.0000000000
     13733       692  HPTSH     DC16          -18.2074969623       -4.3857008120       16.0329025556  HPTSH     18              0.0000000000
     13734       692  HPTSH     O7            -21.8392573460       -4.6878019926       15.5101748196  HPTSH     18              0.0000000000
     13735       692  HPTSH     DO7           -21.8884820116       -4.7070458308       15.5074652737  HPTSH     18              0.0000000000
     13736       692  HPTSH     S3            -18.2488131586       -5.5761705196       12.0469392564  HPTSH     18              0.0000000000
     13737       692  HPTSH     DS3           -18.2746929466       -5.5995866792       12.0440347580  HPTSH     18              0.0000000000
     13738       692  HPTSH     O8            -19.5790355787       -5.8452100268       11.3664597321  HPTSH     18              0.0000000000
     13739       692  HPTSH     DO8           -19.6123184610       -5.8549273993       11.3521679338  HPTSH     18              0.0000000000
     13740       692  HPTSH     O9            -17.5431738986       -4.4622027870       11.3759717663  HPTSH     18              0.0000000000
     13741       692  HPTSH     DO9           -17.5646379075       -4.4892475270       11.3758562326  HPTSH     18              0.0000000000
     13742       692  HPTSH     O10           -17.5004027798       -6.8807968047       12.0573908683  HPTSH     18              0.0000000000
     13743       692  HPTSH     DO10          -17.5062710051       -6.9059060362       12.0473277466  HPTSH     18              0.0000000000
     13744       692  HPTSH     H1            -21.0204166772       -3.8774918704       17.8350703135  HPTSH     18              0.0000000000
     13745       692  HPTSH     H2            -19.3960930140       -3.3242735411       19.5993376591  HPTSH     18              0.0000000000
     13746       692  HPTSH     H3            -14.6316484266       -3.1769243836       19.8388013149  HPTSH     18              0.0000000000
     13747       692  HPTSH     H4            -14.4005689236       -4.4083455528       15.2108639881  HPTSH     18              0.0000000000
     13748       692  HPTSH     H5            -15.9925337322       -5.0054866660       13.5163549004  HPTSH     18              0.0000000000
     13749       692  HPTSH     H6            -20.7752894050       -5.1987176789       13.3195196793  HPTSH     18              0.0000000000
     13750       692  HPTSH     H7            -22.0160203600       -4.5632876965       14.5645792258  HPTSH     18              0.0000000000
     13751       692  HPTSH     LPO11         -18.0154373347       -4.2922989351       21.4706120134  HPTSH     18              0.0000000000
     13752       692  HPTSH     LPO12         -18.1119236468       -3.9496485121       22.0237503032  HPTSH     18              0.0000000000
     13753       692  HPTSH     LPO21         -15.7537779918       -2.6461477150       21.7603246546  HPTSH     18              0.0000000000
     13754       692  HPTSH     LPO22         -16.1403176437       -2.5020998498       22.2726899525  HPTSH     18              0.0000000000
     13755       692  HPTSH     LPO31         -18.1654900182       -1.5504209152       20.6859898705  HPTSH     18              0.0000000000
     13756       692  HPTSH     LPO32         -18.2330655462       -1.5512297074       21.3402939149  HPTSH     18              0.0000000000
     13757       692  HPTSH     LPO41         -12.6280698862       -3.3054707580       18.9461071481  HPTSH     18              0.0000000000
     13758       692  HPTSH     LPO42         -12.0354796127       -3.4026069017       18.6776258155  HPTSH     18              0.0000000000
     13759       692  HPTSH     LPO51         -12.9252575907       -2.8413667731       16.1836780250  HPTSH     18              0.0000000000
     13760       692  HPTSH     LPO52         -12.2978957795       -3.0248283204       16.2574337506  HPTSH     18              0.0000000000
     13761       692  HPTSH     LPO61         -12.9684310531       -5.4990275046       17.2343876702  HPTSH     18              0.0000000000
     13762       692  HPTSH     LPO62         -12.3372604256       -5.3320245507       17.1542968416  HPTSH     18              0.0000000000
     13763       692  HPTSH     LPO71         -21.9212729833       -5.0261186485       15.5464415477  HPTSH     18              0.0000000000
     13764       692  HPTSH     LPO72         -21.9330819648       -4.3743578578       15.6344717032  HPTSH     18              0.0000000000
     13765       692  HPTSH     LPO81         -19.8417568240       -5.7892727880       11.5908446082  HPTSH     18              0.0000000000
     13766       692  HPTSH     LPO82         -19.5260853408       -5.9435737708       11.0347658278  HPTSH     18              0.0000000000
     13767       692  HPTSH     LPO91         -17.5141735562       -4.1901249303       11.5942207526  HPTSH     18              0.0000000000
     13768       692  HPTSH     LPO92         -17.4579903618       -4.5540225936       11.0491493556  HPTSH     18              0.0000000000
     13769       692  HPTSH     LPO101        -17.4637731734       -6.9951589034       12.3861454611  HPTSH     18              0.0000000000
     13770       692  HPTSH     LPO102        -17.4179036241       -6.9740995364       11.7302999183  HPTSH     18              0.0000000000
     13771       693  MEOH      C1             31.8278123617      -25.3130302022      -12.5135518521  MEOH      1               0.0000000000
     13772       693  MEOH      DC1            31.8266135135      -25.3005912028      -12.4835838104  MEOH      1               0.0000000000
     13773       693  MEOH      O1             32.1959493888      -25.8121676913      -11.2254111504  MEOH      1               0.0000000000
     13774       693  MEOH      DO1            32.1937322731      -25.7923335822      -11.1982309694  MEOH      1               0.0000000000
     13775       693  MEOH      HO1            33.0298135048      -26.2906977469      -11.3541730334  MEOH      1               0.0000000000
     13776       693  MEOH      HO2            32.0938285357      -25.0833632126      -10.5934971031  MEOH      1               0.0000000000
     13777       693  MEOH      H1A            30.7646969569      -24.9903880195      -12.5164946239  MEOH      1               0.0000000000
     13778       693  MEOH      H1B            31.9454174039      -26.1118817723      -13.2766548750  MEOH      1               0.0000000000
     13779       693  MEOH      H1C            32.4786088184      -24.4584626287      -12.7972757217  MEOH      1               0.0000000000
     13780       693  MEOH      LP1A           32.3898940977      -25.5750599912      -11.0561025905  MEOH      1               0.0000000000
     13781       693  MEOH      LP1B           32.0542338209      -26.1281143229      -11.1744756641  MEOH      1               0.0000000000
     13782       694  MEOH      C1             18.7052082232      -13.3798870595        4.6882367691  MEOH      2               0.0000000000
     13783       694  MEOH      DC1            18.7101838759      -13.3705244591        4.6847559850  MEOH      2               0.0000000000
     13784       694  MEOH      O1             17.9309012604      -14.5326618182        5.0222555039  MEOH      2               0.0000000000
     13785       694  MEOH      DO1            17.9292320906      -14.5254163033        5.0202692524  MEOH      2               0.0000000000
     13786       694  MEOH      HO1            18.3957313017      -15.0154499122        5.7235034550  MEOH      2               0.0000000000
     13787       694  MEOH      HO2            17.0238372396      -14.2171180692        5.1585163045  MEOH      2               0.0000000000
     13788       694  MEOH      H1A            18.2644821657      -12.8786611735        3.8000621500  MEOH      2               0.0000000000
     13789       694  MEOH      H1B            19.7471932341      -13.6818282998        4.4486126371  MEOH      2               0.0000000000
     13790       694  MEOH      H1C            18.7080043362      -12.6726304434        5.5450338640  MEOH      2               0.0000000000
     13791       694  MEOH      LP1A           17.7004815528      -14.4534087293        5.2735037999  MEOH      2               0.0000000000
     13792       694  MEOH      LP1B           18.0237046172      -14.8021663715        4.8191426468  MEOH      2               0.0000000000
     13793       695  MEOH      C1             35.5206537245      -22.3064340682      -23.9650905397  MEOH      3               0.0000000000
     13794       695  MEOH      DC1            35.5305209897      -22.2971058171      -23.9589786680  MEOH      3               0.0000000000
     13795       695  MEOH      O1             36.4277496022      -21.2793275760      -23.5842917971  MEOH      3               0.0000000000
     13796       695  MEOH      DO1            36.4411425932      -21.2854838319      -23.5598145391  MEOH      3               0.0000000000
     13797       695  MEOH      HO1            37.1183239830      -21.2407035527      -24.2643765056  MEOH      3               0.0000000000
     13798       695  MEOH      HO2            35.8839931971      -20.4907892570      -23.4312026356  MEOH      3               0.0000000000
     13799       695  MEOH      H1A            34.6892612719      -22.3572377612      -23.2298854154  MEOH      3               0.0000000000
     13800       695  MEOH      H1B            36.0417532508      -23.2867673764      -24.0065982323  MEOH      3               0.0000000000
     13801       695  MEOH      H1C            35.1073188418      -22.0764036075      -24.9703573018  MEOH      3               0.0000000000
     13802       695  MEOH      LP1A           36.3230194089      -20.9723315817      -23.7157644031  MEOH      3               0.0000000000
     13803       695  MEOH      LP1B           36.6788836885      -21.4113430068      -23.3793440069  MEOH      3               0.0000000000
     13804       696  MEOH      C1             -1.9034399550      -32.8842861412       14.9359120987  MEOH      4               0.0000000000
     13805       696  MEOH      DC1            -1.9006872734      -32.8798363457       14.9462819020  MEOH      4               0.0000000000
     13806       696  MEOH      O1             -3.0651277253      -32.1887060105       14.4751209937  MEOH      4               0.0000000000
     13807       696  MEOH      DO1            -3.0717018343      -32.1820718262       14.4945375257  MEOH      4               0.0000000000
     13808       696  MEOH      HO1            -3.3611502616      -32.6393942928       13.6688017449  MEOH      4               0.0000000000
     13809       696  MEOH      HO2            -3.6383410780      -32.0500124400       15.2452447148  MEOH      4               0.0000000000
     13810       696  MEOH      H1A            -1.3121313252      -32.2185172481       15.6003117424  MEOH      4               0.0000000000
     13811       696  MEOH      H1B            -1.2534815899      -33.1816487504       14.0853531045  MEOH      4               0.0000000000
     13812       696  MEOH      H1C            -2.1975507451      -33.8132048921       15.4697002565  MEOH      4               0.0000000000
     13813       696  MEOH      LP1A           -3.3522618220      -32.3250468749       14.6216309907  MEOH      4               0.0000000000
     13814       696  MEOH      LP1B           -2.9716112144      -31.9286687335       14.2603297537  MEOH      4               0.0000000000
     13815       697  MEOH      C1             13.3251959910       16.6399002956       -5.6728392850  MEOH      5               0.0000000000
     13816       697  MEOH      DC1            13.3337029496       16.6439386635       -5.7002538236  MEOH      5               0.0000000000
     13817       697  MEOH      O1             12.6662089041       15.4326920827       -5.2903834471  MEOH      5               0.0000000000
     13818       697  MEOH      DO1            12.6700926169       15.4383163922       -5.3038855872  MEOH      5               0.0000000000
     13819       697  MEOH      HO1            13.2077180811       15.0205619263       -4.5991406928  MEOH      5               0.0000000000
     13820       697  MEOH      HO2            11.7576147688       15.6976275418       -5.0778607412  MEOH      5               0.0000000000
     13821       697  MEOH      H1A            12.7040876162       17.1878926837       -6.4132781611  MEOH      5               0.0000000000
     13822       697  MEOH      H1B            14.3185354687       16.4024362727       -6.1101132518  MEOH      5               0.0000000000
     13823       697  MEOH      H1C            13.4648571946       17.2839256080       -4.7783857390  MEOH      5               0.0000000000
     13824       697  MEOH      LP1A           12.4386975232       15.4970838559       -5.0323286640  MEOH      5               0.0000000000
     13825       697  MEOH      LP1B           12.7748784838       15.1679701713       -5.4919106960  MEOH      5               0.0000000000
     13826       698  MEOH      C1             31.3541795170       28.1715214848       22.5797452768  MEOH      6               0.0000000000
     13827       698  MEOH      DC1            31.3594428166       28.1577813181       22.5681117114  MEOH      6               0.0000000000
     13828       698  MEOH      O1             32.7460885599       27.8679108767       22.6676549212  MEOH      6               0.0000000000
     13829       698  MEOH      DO1            32.7562286848       27.8559831402       22.6453950413  MEOH      6               0.0000000000
     13830       698  MEOH      HO1            33.1868432845       28.7291350023       22.7378566183  MEOH      6               0.0000000000
     13831       698  MEOH      HO2            32.8180453501       27.2604637262       23.4204697598  MEOH      6               0.0000000000
     13832       698  MEOH      H1A            30.7514799630       27.2389598266       22.6172019651  MEOH      6               0.0000000000
     13833       698  MEOH      H1B            31.1535042096       28.7058480240       21.6265687081  MEOH      6               0.0000000000
     13834       698  MEOH      H1C            31.0539350271       28.8243857000       23.4270601904  MEOH      6               0.0000000000
     13835       698  MEOH      LP1A           32.8377660646       27.8223459226       23.0023474220  MEOH      6               0.0000000000
     13836       698  MEOH      LP1B           32.8854791821       27.8513443166       22.3470370747  MEOH      6               0.0000000000
     13837       699  MEOH      C1            -12.0513049731       23.4206496260        1.9488072924  MEOH      7               0.0000000000
     13838       699  MEOH      DC1           -12.0533851266       23.4208839781        1.9558625587  MEOH      7               0.0000000000
     13839       699  MEOH      O1            -10.7995808037       24.1066726875        2.0361837430  MEOH      7               0.0000000000
     13840       699  MEOH      DO1           -10.8024896874       24.1035927540        2.0434149788  MEOH      7               0.0000000000
     13841       699  MEOH      HO1           -10.8018808141       24.6830450727        2.8163693513  MEOH      7               0.0000000000
     13842       699  MEOH      HO2           -10.1057443963       23.4454991199        1.8867161747  MEOH      7               0.0000000000
     13843       699  MEOH      H1A           -12.1216242807       22.9118320808        0.9636774019  MEOH      7               0.0000000000
     13844       699  MEOH      H1B           -12.8913296576       24.1426701309        2.0346322310  MEOH      7               0.0000000000
     13845       699  MEOH      H1C           -12.1246527701       22.6569739009        2.7523870887  MEOH      7               0.0000000000
     13846       699  MEOH      LP1A          -10.5711590150       23.9159607480        2.2204456288  MEOH      7               0.0000000000
     13847       699  MEOH      LP1B          -10.8148780018       24.4069425640        1.8570078602  MEOH      7               0.0000000000
     13848       700  MEOH      C1             28.4801939926      -32.5349485954       16.6777494346  MEOH      8               0.0000000000
     13849       700  MEOH      DC1            28.4872337960      -32.5243456994       16.6798270004  MEOH      8               0.0000000000
     13850       700  MEOH      O1             27.2929617158      -32.2825641963       17.4320305206  MEOH      8               0.0000000000
     13851       700  MEOH      DO1            27.3036709652      -32.2667048167       17.4316688938  MEOH      8               0.0000000000
     13852       700  MEOH      HO1            27.0719953670      -33.0920925979       17.9185874441  MEOH      8               0.0000000000
     13853       700  MEOH      HO2            27.4286263580      -31.4402254730       17.8935070432  MEOH      8               0.0000000000
     13854       700  MEOH      H1A            28.6371434562      -31.7052715383       15.9557218392  MEOH      8               0.0000000000
     13855       700  MEOH      H1B            28.3718008773      -33.4750702604       16.0957329503  MEOH      8               0.0000000000
     13856       700  MEOH      H1C            29.3616862014      -32.6154902086       17.3491699693  MEOH      8               0.0000000000
     13857       700  MEOH      LP1A           27.3761404822      -32.1536308825       17.7466056204  MEOH      8               0.0000000000
     13858       700  MEOH      LP1B           27.0105553617      -32.3584956282       17.2397258956  MEOH      8               0.0000000000
     13859       701  MEOH      C1             14.0391571406      -19.1201551896       28.9852906705  MEOH      9               0.0000000000
     13860       701  MEOH      DC1            14.0458674673      -19.1356318412       29.0016950172  MEOH      9               0.0000000000
     13861       701  MEOH      O1             13.6900943965      -19.8965609304       30.1346440578  MEOH      9               0.0000000000
     13862       701  MEOH      DO1            13.7022986053      -19.9050193672       30.1534462140  MEOH      9               0.0000000000
     13863       701  MEOH      HO1            12.7576032311      -19.6835187188       30.2958062204  MEOH      9               0.0000000000
     13864       701  MEOH      HO2            13.9422123715      -20.8087812423       29.9220631792  MEOH      9               0.0000000000
     13865       701  MEOH      H1A            15.0865162881      -19.3327510336       28.6817073623  MEOH      9               0.0000000000
     13866       701  MEOH      H1B            13.9467514391      -18.0357715120       29.2086608265  MEOH      9               0.0000000000
     13867       701  MEOH      H1C            13.3581078235      -19.3578788349       28.1403171230  MEOH      9               0.0000000000
     13868       701  MEOH      LP1A           13.5756695811      -20.2121697236       30.0356589513  MEOH      9               0.0000000000
     13869       701  MEOH      LP1B           13.7567637857      -19.7151204280       30.4264222897  MEOH      9               0.0000000000
     13870       702  MEOH      C1            -19.2984265599       -3.6948886543      -18.6377458518  MEOH      10              0.0000000000
     13871       702  MEOH      DC1           -19.3148788482       -3.6876665856      -18.6409293180  MEOH      10              0.0000000000
     13872       702  MEOH      O1            -19.0300045801       -2.7717334577      -17.5818297180  MEOH      10              0.0000000000
     13873       702  MEOH      DO1           -19.0459624493       -2.7512129477      -17.5921122418  MEOH      10              0.0000000000
     13874       702  MEOH      HO1           -18.2060517691       -2.3057326080      -17.7935960383  MEOH      10              0.0000000000
     13875       702  MEOH      HO2           -19.8627054067       -2.3332954189      -17.3467097073  MEOH      10              0.0000000000
     13876       702  MEOH      H1A           -19.9890996133       -4.4827855371      -18.2682729356  MEOH      10              0.0000000000
     13877       702  MEOH      H1B           -18.3643137441       -4.1899651593      -18.9792916050  MEOH      10              0.0000000000
     13878       702  MEOH      H1C           -19.7570867857       -3.1622092690      -19.4980972169  MEOH      10              0.0000000000
     13879       702  MEOH      LP1A          -19.1838926211       -2.4646951469      -17.6492533527  MEOH      10              0.0000000000
     13880       702  MEOH      LP1B          -18.8406661354       -2.9273889407      -17.3319851183  MEOH      10              0.0000000000
     13881       703  MEOH      C1            -28.7347566915       30.9347151103       -2.6915676394  MEOH      11              0.0000000000
     13882       703  MEOH      DC1           -28.7413078327       30.9335180387       -2.6761426614  MEOH      11              0.0000000000
     13883       703  MEOH      O1            -28.2092682309       30.3332833363       -3.8681364132  MEOH      11              0.0000000000
     13884       703  MEOH      DO1           -28.2200252928       30.3433738584       -3.8644543041  MEOH      11              0.0000000000
     13885       703  MEOH      HO1           -27.3556156716       29.9283071456       -3.6486561301  MEOH      11              0.0000000000
     13886       703  MEOH      HO2           -28.9269402494       29.7787660310       -4.2121675630  MEOH      11              0.0000000000
     13887       703  MEOH      H1A           -29.7117290691       31.4117922554       -2.9201357302  MEOH      11              0.0000000000
     13888       703  MEOH      H1B           -28.0435081633       31.7167119867       -2.3108087162  MEOH      11              0.0000000000
     13889       703  MEOH      H1C           -28.8846929022       30.1479994322       -1.9215555765  MEOH      11              0.0000000000
     13890       703  MEOH      LP1A          -28.3224725069       30.0031574376       -3.8946257115  MEOH      11              0.0000000000
     13891       703  MEOH      LP1B          -28.0168297882       30.5655919527       -4.0456192364  MEOH      11              0.0000000000
     13892       704  MEOH      C1             18.9874675578        3.2011574332      -22.2079728450  MEOH      12              0.0000000000
     13893       704  MEOH      DC1            19.0052658226        3.1904117681      -22.2075392101  MEOH      12              0.0000000000
     13894       704  MEOH      O1             19.8887550032        3.8843378734      -23.0841378167  MEOH      12              0.0000000000
     13895       704  MEOH      DO1            19.8919008106        3.8761205040      -23.0920898317  MEOH      12              0.0000000000
     13896       704  MEOH      HO1            20.1865671895        4.6891345046      -22.6319096839  MEOH      12              0.0000000000
     13897       704  MEOH      HO2            20.5273884539        3.2211677329      -23.3895108364  MEOH      12              0.0000000000
     13898       704  MEOH      H1A            18.5261414426        2.3406986460      -22.7381708187  MEOH      12              0.0000000000
     13899       704  MEOH      H1B            18.1729511206        3.8808728629      -21.8780169265  MEOH      12              0.0000000000
     13900       704  MEOH      H1C            19.5343483998        2.8404173648      -21.3106942098  MEOH      12              0.0000000000
     13901       704  MEOH      LP1A           20.2157254423        3.7710855849      -23.0315616713  MEOH      12              0.0000000000
     13902       704  MEOH      LP1B           19.7112220867        4.1036707701      -23.2912009568  MEOH      12              0.0000000000
     13903       705  MEOH      C1             17.3212386975      -16.1222783414      -35.3332202206  MEOH      13              0.0000000000
     13904       705  MEOH      DC1            17.3191841253      -16.1363853409      -35.3260971620  MEOH      13              0.0000000000
     13905       705  MEOH      O1             16.9883552037      -16.6623697272      -34.0506784410  MEOH      13              0.0000000000
     13906       705  MEOH      DO1            16.9877866465      -16.6839007520      -34.0423154901  MEOH      13              0.0000000000
     13907       705  MEOH      HO1            16.0240899900      -16.7669561984      -34.0382579863  MEOH      13              0.0000000000
     13908       705  MEOH      HO2            17.6008227525      -17.3962985265      -33.8859604368  MEOH      13              0.0000000000
     13909       705  MEOH      H1A            18.3744117401      -15.7685890278      -35.3403904171  MEOH      13              0.0000000000
     13910       705  MEOH      H1B            16.6610347199      -15.2593749712      -35.5652751346  MEOH      13              0.0000000000
     13911       705  MEOH      H1C            17.1881510115      -16.8997432031      -36.1156248840  MEOH      13              0.0000000000
     13912       705  MEOH      LP1A           16.9975437992      -17.0120658174      -34.0620016126  MEOH      13              0.0000000000
     13913       705  MEOH      LP1B           16.9345795170      -16.4030313182      -33.8218733599  MEOH      13              0.0000000000
     13914       706  MEOH      C1             36.7509633994       31.3049812876       29.6740426963  MEOH      14              0.0000000000
     13915       706  MEOH      DC1            36.7558319683       31.3116153718       29.6778622374  MEOH      14              0.0000000000
     13916       706  MEOH      O1             35.8718239297       30.5064187673       28.8769139660  MEOH      14              0.0000000000
     13917       706  MEOH      DO1            35.8821054387       30.5094123867       28.8757424828  MEOH      14              0.0000000000
     13918       706  MEOH      HO1            35.2693348314       30.0302091225       29.4694772627  MEOH      14              0.0000000000
     13919       706  MEOH      HO2            35.5084945516       31.1058911484       28.2064479879  MEOH      14              0.0000000000
     13920       706  MEOH      H1A            37.4956599170       31.7972257810       29.0126476136  MEOH      14              0.0000000000
     13921       706  MEOH      H1B            37.2855804935       30.6683522730       30.4110698752  MEOH      14              0.0000000000
     13922       706  MEOH      H1C            36.1734399996       32.0889450155       30.2090086732  MEOH      14              0.0000000000
     13923       706  MEOH      LP1A           35.5878430228       30.6915496517       28.7898427299  MEOH      14              0.0000000000
     13924       706  MEOH      LP1B           36.0138257146       30.1914355531       28.8210474480  MEOH      14              0.0000000000
     13925       707  MEOH      C1             33.4368465209      -30.3767339430      -15.0773342680  MEOH      15              0.0000000000
     13926       707  MEOH      DC1            33.4310879148      -30.3901557217      -15.0659524736  MEOH      15              0.0000000000
     13927       707  MEOH      O1             33.8581529457      -31.6515747467      -14.5939253078  MEOH      15              0.0000000000
     13928       707  MEOH      DO1            33.8464671113      -31.6651324158      -14.5889640445  MEOH      15              0.0000000000
     13929       707  MEOH      HO1            34.6608651883      -31.5030008913      -14.0700180019  MEOH      15              0.0000000000
     13930       707  MEOH      HO2            33.0676192282      -32.0797260102      -14.2297235259  MEOH      15              0.0000000000
     13931       707  MEOH      H1A            32.6461675445      -30.5180694372      -15.8449096942  MEOH      15              0.0000000000
     13932       707  MEOH      H1B            34.2895535495      -29.8385082188      -15.5437298011  MEOH      15              0.0000000000
     13933       707  MEOH      H1C            33.0465770140      -29.7439801475      -14.2517233741  MEOH      15              0.0000000000
     13934       707  MEOH      LP1A           33.7053955796      -31.7194524124      -14.2864227719  MEOH      15              0.0000000000
     13935       707  MEOH      LP1B           34.0726941602      -31.8025294101      -14.8256250206  MEOH      15              0.0000000000
     13936       708  MEOH      C1              8.3935679204      -21.8988405235       -5.4189257510  MEOH      16              0.0000000000
     13937       708  MEOH      DC1             8.4053560834      -21.8946014321       -5.4250617821  MEOH      16              0.0000000000
     13938       708  MEOH      O1              7.8385359354      -23.0676482662       -6.0170261786  MEOH      16              0.0000000000
     13939       708  MEOH      DO1             7.8554651224      -23.0661073943       -6.0232002569  MEOH      16              0.0000000000
     13940       708  MEOH      HO1             7.2976725461      -23.5036697776       -5.3400830232  MEOH      16              0.0000000000
     13941       708  MEOH      HO2             7.4208781014      -22.7676451486       -6.8394981014  MEOH      16              0.0000000000
     13942       708  MEOH      H1A             8.9704624653      -21.3555873042       -6.1976359825  MEOH      16              0.0000000000
     13943       708  MEOH      H1B             9.0672261597      -22.1693560502       -4.5778984468  MEOH      16              0.0000000000
     13944       708  MEOH      H1C             7.5808313133      -21.2392021470       -5.0465584299  MEOH      16              0.0000000000
     13945       708  MEOH      LP1A            7.5329178672      -22.9906265578       -6.1692275348  MEOH      16              0.0000000000
     13946       708  MEOH      LP1B            8.0562578125      -23.3384660580       -5.9751345582  MEOH      16              0.0000000000
     13947       709  MEOH      C1             30.0545335539      -32.7639786768      -26.8653206552  MEOH      17              0.0000000000
     13948       709  MEOH      DC1            30.0525579111      -32.7743833261      -26.8612797375  MEOH      17              0.0000000000
     13949       709  MEOH      O1             28.6628831523      -32.7286346495      -26.5517969977  MEOH      17              0.0000000000
     13950       709  MEOH      DO1            28.6662035962      -32.7433016855      -26.5368985139  MEOH      17              0.0000000000
     13951       709  MEOH      HO1            28.2394367275      -32.1381129753      -27.1943522708  MEOH      17              0.0000000000
     13952       709  MEOH      HO2            28.3842549696      -33.6540536554      -26.4689356721  MEOH      17              0.0000000000
     13953       709  MEOH      H1A            30.5935085431      -33.3605228072      -26.0985338127  MEOH      17              0.0000000000
     13954       709  MEOH      H1B            30.4769398502      -31.7366264982      -26.8863306984  MEOH      17              0.0000000000
     13955       709  MEOH      H1C            30.1913936877      -33.2160806406      -27.8709021386  MEOH      17              0.0000000000
     13956       709  MEOH      LP1A           28.4953461862      -32.9846530515      -26.7217556481  MEOH      17              0.0000000000
     13957       709  MEOH      LP1B           28.5987167715      -32.4739133765      -26.3204968708  MEOH      17              0.0000000000
     13958       710  MEOH      C1             13.6652441522       -8.9072841338      -16.9887452739  MEOH      18              0.0000000000
     13959       710  MEOH      DC1            13.6905493089       -8.9237603861      -16.9832821944  MEOH      18              0.0000000000
     13960       710  MEOH      O1             13.3974857431       -7.5265561851      -17.2097749396  MEOH      18              0.0000000000
     13961       710  MEOH      DO1            13.4148797058       -7.5343375693      -17.2042848084  MEOH      18              0.0000000000
     13962       710  MEOH      HO1            12.4771308758       -7.4752422279      -17.5117911593  MEOH      18              0.0000000000
     13963       710  MEOH      HO2            13.6511907361       -7.0807743666      -16.3864813426  MEOH      18              0.0000000000
     13964       710  MEOH      H1A            14.6916600552       -9.0351880272      -16.5832431295  MEOH      18              0.0000000000
     13965       710  MEOH      H1B            13.5754643189       -9.4501149451      -17.9539371159  MEOH      18              0.0000000000
     13966       710  MEOH      H1C            12.9392118833       -9.3248341331      -16.2587794219  MEOH      18              0.0000000000
     13967       710  MEOH      LP1A           13.2797677964       -7.3787860658      -16.9151455505  MEOH      18              0.0000000000
     13968       710  MEOH      LP1B           13.4808915644       -7.4395497013      -17.5383679108  MEOH      18              0.0000000000
     13969       711  MEOH      C1             30.6180197584      -34.3664475914        7.1607075287  MEOH      19              0.0000000000
     13970       711  MEOH      DC1            30.6236774250      -34.3940463318        7.1427297860  MEOH      19              0.0000000000
     13971       711  MEOH      O1             31.5347516056      -35.2336069645        6.4938729096  MEOH      19              0.0000000000
     13972       711  MEOH      DO1            31.5389097878      -35.2503517083        6.4801555110  MEOH      19              0.0000000000
     13973       711  MEOH      HO1            31.6234512686      -36.0267344832        7.0452177281  MEOH      19              0.0000000000
     13974       711  MEOH      HO2            31.2614270961      -35.2609088478        5.5635781605  MEOH      19              0.0000000000
     13975       711  MEOH      H1A            30.5578131539      -33.3963938442        6.6224771931  MEOH      19              0.0000000000
     13976       711  MEOH      H1B            30.9680874752      -34.1578933124        8.1942832187  MEOH      19              0.0000000000
     13977       711  MEOH      H1C            29.6006742059      -34.8112322586        7.1993808603  MEOH      19              0.0000000000
     13978       711  MEOH      LP1A           31.3622827185      -35.4426155437        6.2723556488  MEOH      19              0.0000000000
     13979       711  MEOH      LP1B           31.8621352841      -35.1623656888        6.5950885591  MEOH      19              0.0000000000
     13980       712  MEOH      C1            -12.4372807352      -21.6490665358      -18.1839956163  MEOH      20              0.0000000000
     13981       712  MEOH      DC1           -12.4302106972      -21.6538228629      -18.1779261337  MEOH      20              0.0000000000
     13982       712  MEOH      O1            -13.3244846373      -22.7505134099      -18.0113308606  MEOH      20              0.0000000000
     13983       712  MEOH      DO1           -13.3154724143      -22.7592855311      -18.0085756122  MEOH      20              0.0000000000
     13984       712  MEOH      HO1           -14.0341528609      -22.6362254543      -18.6626443622  MEOH      20              0.0000000000
     13985       712  MEOH      HO2           -12.7640537178      -23.5421822971      -18.0201375284  MEOH      20              0.0000000000
     13986       712  MEOH      H1A           -11.6706126840      -21.6569075171      -17.3799560524  MEOH      20              0.0000000000
     13987       712  MEOH      H1B           -13.0011875888      -20.6924481845      -18.1491905737  MEOH      20              0.0000000000
     13988       712  MEOH      H1C           -11.9274972077      -21.7361868750      -19.1672818420  MEOH      20              0.0000000000
     13989       712  MEOH      LP1A          -13.2226241553      -23.0188191690      -18.2116717248  MEOH      20              0.0000000000
     13990       712  MEOH      LP1B          -13.5687752400      -22.6713141244      -17.7735293160  MEOH      20              0.0000000000
     13991       713  MEOH      C1            -28.8877676583       -6.2970622958       34.6841921644  MEOH      21              0.0000000000
     13992       713  MEOH      DC1           -28.8951462104       -6.3053262731       34.6866547869  MEOH      21              0.0000000000
     13993       713  MEOH      O1            -28.4590954262       -5.4244744279       33.6419818929  MEOH      21              0.0000000000
     13994       713  MEOH      DO1           -28.4660035553       -5.4280459588       33.6423454430  MEOH      21              0.0000000000
     13995       713  MEOH      HO1           -29.0955605909       -4.6939615530       33.5954734600  MEOH      21              0.0000000000
     13996       713  MEOH      HO2           -27.5320626375       -5.2213113972       33.8425685118  MEOH      21              0.0000000000
     13997       713  MEOH      H1A           -28.1883317200       -7.1580627294       34.7457439580  MEOH      21              0.0000000000
     13998       713  MEOH      H1B           -29.9125915185       -6.6641572242       34.4621598027  MEOH      21              0.0000000000
     13999       713  MEOH      H1C           -28.8834606889       -5.7584232241       35.6558764755  MEOH      21              0.0000000000
     14000       713  MEOH      LP1A          -28.2389569152       -5.1843143872       33.7698966724  MEOH      21              0.0000000000
     14001       713  MEOH      LP1B          -28.5982518644       -5.5249169641       33.3369461858  MEOH      21              0.0000000000
     14002       714  MEOH      C1            -36.9806715001       18.3800319184        0.8540210428  MEOH      22              0.0000000000
     14003       714  MEOH      DC1           -36.9934347979       18.3905217769        0.8550679598  MEOH      22              0.0000000000
     14004       714  MEOH      O1            -36.8031480403       16.9799349972        0.6216277757  MEOH      22              0.0000000000
     14005       714  MEOH      DO1           -36.8201875219       16.9819222144        0.6203273577  MEOH      22              0.0000000000
     14006       714  MEOH      HO1           -36.2084867852       16.6374035307        1.3071569043  MEOH      22              0.0000000000
     14007       714  MEOH      HO2           -37.6776924408       16.6028647022        0.4375351753  MEOH      22              0.0000000000
     14008       714  MEOH      H1A           -37.4324966219       18.8521148652       -0.0444848010  MEOH      22              0.0000000000
     14009       714  MEOH      H1B           -35.9868800822       18.8461565138        1.0255654372  MEOH      22              0.0000000000
     14010       714  MEOH      H1C           -37.6250590577       18.5493764501        1.7430700325  MEOH      22              0.0000000000
     14011       714  MEOH      LP1A          -37.0506131987       16.7983506405        0.7898184912  MEOH      22              0.0000000000
     14012       714  MEOH      LP1B          -36.5329031791       16.9277983014        0.4054114953  MEOH      22              0.0000000000
     14013       715  MEOH      C1             14.7210681798       29.0953500383       26.0295643218  MEOH      23              0.0000000000
     14014       715  MEOH      DC1            14.7215803661       29.0937928402       26.0418662378  MEOH      23              0.0000000000
     14015       715  MEOH      O1             16.0642849182       29.5234486167       26.2681081735  MEOH      23              0.0000000000
     14016       715  MEOH      DO1            16.0646594264       29.5181810960       26.2707531735  MEOH      23              0.0000000000
     14017       715  MEOH      HO1            16.4417420666       29.7597688799       25.4063780328  MEOH      23              0.0000000000
     14018       715  MEOH      HO2            16.0038780102       30.2052377266       26.9554324166  MEOH      23              0.0000000000
     14019       715  MEOH      H1A            14.2415506217       28.8173410776       26.9924220118  MEOH      23              0.0000000000
     14020       715  MEOH      H1B            14.7127287909       28.2155402654       25.3511940551  MEOH      23              0.0000000000
     14021       715  MEOH      H1C            14.1356905304       29.9152239401       25.5610978953  MEOH      23              0.0000000000
     14022       715  MEOH      LP1A           16.0706713602       29.8674503301       26.3323112464  MEOH      23              0.0000000000
     14023       715  MEOH      LP1B           16.2814137822       29.2492489077       26.2550860385  MEOH      23              0.0000000000
     14024       716  MEOH      C1             11.3356121176      -27.6402562862      -14.6354417643  MEOH      24              0.0000000000
     14025       716  MEOH      DC1            11.3535122722      -27.6383442338      -14.6465193005  MEOH      24              0.0000000000
     14026       716  MEOH      O1              9.9249874219      -27.7099368630      -14.4348531299  MEOH      24              0.0000000000
     14027       716  MEOH      DO1             9.9419827817      -27.7087929367      -14.4399124763  MEOH      24              0.0000000000
     14028       716  MEOH      HO1             9.7281717836      -27.5658515879      -13.4960224535  MEOH      24              0.0000000000
     14029       716  MEOH      HO2             9.5307525441      -27.1322795307      -15.1070070316  MEOH      24              0.0000000000
     14030       716  MEOH      H1A            11.5729956112      -27.9278606796      -15.6819854995  MEOH      24              0.0000000000
     14031       716  MEOH      H1B            11.8524165069      -28.3246317756      -13.9291384220  MEOH      24              0.0000000000
     14032       716  MEOH      H1C            11.6831150765      -26.5987465891      -14.4656764960  MEOH      24              0.0000000000
     14033       716  MEOH      LP1A            9.7821259661      -27.3933792978      -14.4782341438  MEOH      24              0.0000000000
     14034       716  MEOH      LP1B            9.8296077175      -28.0401907788      -14.3690119337  MEOH      24              0.0000000000
     14035       717  MEOH      C1             13.9754941724       30.3737601185      -15.4892620473  MEOH      25              0.0000000000
     14036       717  MEOH      DC1            13.9779289953       30.4004753338      -15.5068613823  MEOH      25              0.0000000000
     14037       717  MEOH      O1             13.9885139259       29.0480415028      -14.9577912092  MEOH      25              0.0000000000
     14038       717  MEOH      DO1            13.9840173244       29.0808444188      -14.9701738507  MEOH      25              0.0000000000
     14039       717  MEOH      HO1            13.6190990684       28.4018003889      -15.5797277701  MEOH      25              0.0000000000
     14040       717  MEOH      HO2            14.8835411597       28.9094455957      -14.6104910135  MEOH      25              0.0000000000
     14041       717  MEOH      H1A            14.1815599865       31.0948096252      -14.6695392345  MEOH      25              0.0000000000
     14042       717  MEOH      H1B            12.9738082887       30.6034858720      -15.9113668549  MEOH      25              0.0000000000
     14043       717  MEOH      H1C            14.7551234149       30.4857396643      -16.2728179343  MEOH      25              0.0000000000
     14044       717  MEOH      LP1A           14.2911947498       28.8906768352      -15.0360259856  MEOH      25              0.0000000000
     14045       717  MEOH      LP1B           13.6927768312       28.9871206989      -14.7807933942  MEOH      25              0.0000000000
     14046       718  MEOH      C1             29.7123567933       23.4571123545      -29.3384135473  MEOH      26              0.0000000000
     14047       718  MEOH      DC1            29.7005079742       23.4560077089      -29.3402443090  MEOH      26              0.0000000000
     14048       718  MEOH      O1             29.9390018901       22.0524341414      -29.4239499845  MEOH      26              0.0000000000
     14049       718  MEOH      DO1            29.9244213719       22.0426557845      -29.4231481864  MEOH      26              0.0000000000
     14050       718  MEOH      HO1            30.0854675164       21.7431469122      -28.5163216290  MEOH      26              0.0000000000
     14051       718  MEOH      HO2            29.2319245806       21.6973906503      -29.9850968438  MEOH      26              0.0000000000
     14052       718  MEOH      H1A            29.6906922254       23.8831843532      -30.3642372648  MEOH      26              0.0000000000
     14053       718  MEOH      H1B            30.5272382710       23.9470595222      -28.7637476008  MEOH      26              0.0000000000
     14054       718  MEOH      H1C            28.7342857163       23.6645580672      -28.8539919887  MEOH      26              0.0000000000
     14055       718  MEOH      LP1A           29.6347867886       21.8806117402      -29.4032078904  MEOH      26              0.0000000000
     14056       718  MEOH      LP1B           30.2800144360       21.9888144598      -29.4704578300  MEOH      26              0.0000000000
     14057       719  MEOH      C1             16.5747270669      -30.3524948030      -17.9705083200  MEOH      27              0.0000000000
     14058       719  MEOH      DC1            16.5668627837      -30.3442017880      -17.9622253826  MEOH      27              0.0000000000
     14059       719  MEOH      O1             17.0572949096      -30.3060729563      -19.3155720526  MEOH      27              0.0000000000
     14060       719  MEOH      DO1            17.0494351849      -30.3069472159      -19.3054989480  MEOH      27              0.0000000000
     14061       719  MEOH      HO1            17.8869085814      -30.8064210709      -19.3634564950  MEOH      27              0.0000000000
     14062       719  MEOH      HO2            16.3075452598      -30.5535048198      -19.8790904079  MEOH      27              0.0000000000
     14063       719  MEOH      H1A            15.6929521174      -29.6837846570      -17.8724232593  MEOH      27              0.0000000000
     14064       719  MEOH      H1B            17.3678030372      -30.0268337495      -17.2638992443  MEOH      27              0.0000000000
     14065       719  MEOH      H1C            16.2630476729      -31.3889890426      -17.7197960396  MEOH      27              0.0000000000
     14066       719  MEOH      LP1A           16.9242796069      -30.5723311311      -19.4997282733  MEOH      27              0.0000000000
     14067       719  MEOH      LP1B           17.2620601632      -30.0256696360      -19.3596761211  MEOH      27              0.0000000000
     14068       720  MEOH      C1             36.3040587069       24.0897697693       -6.2375101262  MEOH      28              0.0000000000
     14069       720  MEOH      DC1            36.3076781389       24.0930435223       -6.2375907043  MEOH      28              0.0000000000
     14070       720  MEOH      O1             35.1588583902       23.6700970533       -5.4934522013  MEOH      28              0.0000000000
     14071       720  MEOH      DO1            35.1579414537       23.6834266343       -5.4880880172  MEOH      28              0.0000000000
     14072       720  MEOH      HO1            35.3245422515       22.7556635852       -5.2154948454  MEOH      28              0.0000000000
     14073       720  MEOH      HO2            35.0133141223       24.3598336818       -4.8271337719  MEOH      28              0.0000000000
     14074       720  MEOH      H1A            36.1457893024       25.1167186731       -6.6307629006  MEOH      28              0.0000000000
     14075       720  MEOH      H1B            36.4859902775       23.4014384170       -7.0904004205  MEOH      28              0.0000000000
     14076       720  MEOH      H1C            37.1879655774       24.1004123605       -5.5645195022  MEOH      28              0.0000000000
     14077       720  MEOH      LP1A           35.2002315290       23.7495399594       -5.1551075722  MEOH      28              0.0000000000
     14078       720  MEOH      LP1B           34.9207520325       23.5306150308       -5.7087429996  MEOH      28              0.0000000000
     14079       721  MEOH      C1             -1.4089049110        1.3996806001       20.0661197883  MEOH      29              0.0000000000
     14080       721  MEOH      DC1            -1.4100996284        1.3961617102       20.0672082482  MEOH      29              0.0000000000
     14081       721  MEOH      O1             -1.2031720120        0.2083784170       19.3061870285  MEOH      29              0.0000000000
     14082       721  MEOH      DO1            -1.2038146708        0.2030786244       19.3147636501  MEOH      29              0.0000000000
     14083       721  MEOH      HO1            -0.2762625462        0.1861742720       19.0211505068  MEOH      29              0.0000000000
     14084       721  MEOH      HO2            -1.5981322986       -0.5195467372       19.8111933074  MEOH      29              0.0000000000
     14085       721  MEOH      H1A            -2.4885311337        1.4957946215       20.3100261556  MEOH      29              0.0000000000
     14086       721  MEOH      H1B            -1.1159659351        2.2973970178       19.4807882665  MEOH      29              0.0000000000
     14087       721  MEOH      H1C            -0.8215941345        1.3588757631       21.0083097994  MEOH      29              0.0000000000
     14088       721  MEOH      LP1A           -1.1107592402       -0.0543598049       19.5181504837  MEOH      29              0.0000000000
     14089       721  MEOH      LP1B           -1.2720964509        0.2684973731       18.9683481130  MEOH      29              0.0000000000
     14090       722  MEOH      C1             -1.7851762891       21.2397460646        4.4403265973  MEOH      30              0.0000000000
     14091       722  MEOH      DC1            -1.7864132449       21.2352842740        4.4417857188  MEOH      30              0.0000000000
     14092       722  MEOH      O1             -1.9359794964       19.8215374860        4.3505356745  MEOH      30              0.0000000000
     14093       722  MEOH      DO1            -1.9330560267       19.8216660084        4.3578101379  MEOH      30              0.0000000000
     14094       722  MEOH      HO1            -1.8252327751       19.5632532519        3.4221368277  MEOH      30              0.0000000000
     14095       722  MEOH      HO2            -1.3638853878       19.4429080630        5.0362820496  MEOH      30              0.0000000000
     14096       722  MEOH      H1A            -2.0418840972       21.5721101459        5.4688965848  MEOH      30              0.0000000000
     14097       722  MEOH      H1B            -2.4658336995       21.7452154088        3.7223243468  MEOH      30              0.0000000000
     14098       722  MEOH      H1C            -0.7346252765       21.5277852820        4.2219302139  MEOH      30              0.0000000000
     14099       722  MEOH      LP1A           -1.6264855963       19.6650260791        4.3976281934  MEOH      30              0.0000000000
     14100       722  MEOH      LP1B           -2.2725164601       19.7399191426        4.2997290008  MEOH      30              0.0000000000
     14101       723  MEOH      C1             28.7616474471       17.5650330959       34.3847797695  MEOH      31              0.0000000000
     14102       723  MEOH      DC1            28.7544510137       17.5602347684       34.3751910946  MEOH      31              0.0000000000
     14103       723  MEOH      O1             29.8420932121       17.3856251279       35.2962400903  MEOH      31              0.0000000000
     14104       723  MEOH      DO1            29.8377607964       17.3810360529       35.2883962776  MEOH      31              0.0000000000
     14105       723  MEOH      HO1            30.6753116157       17.4727682810       34.8073094578  MEOH      31              0.0000000000
     14106       723  MEOH      HO2            29.6522123354       17.9746779992       36.0431416684  MEOH      31              0.0000000000
     14107       723  MEOH      H1A            27.8056173953       17.3934073203       34.9241053986  MEOH      31              0.0000000000
     14108       723  MEOH      H1B            28.8402575445       16.8296167750       33.5557415994  MEOH      31              0.0000000000
     14109       723  MEOH      H1C            28.7686319804       18.5967746027       33.9727340417  MEOH      31              0.0000000000
     14110       723  MEOH      LP1A           29.9312012780       17.6928702573       35.4382266497  MEOH      31              0.0000000000
     14111       723  MEOH      LP1B           29.9270408701       17.0466635540       35.3159618248  MEOH      31              0.0000000000
     14112       724  MEOH      C1            -29.4237975150       -3.8412888878      -18.0511749269  MEOH      32              0.0000000000
     14113       724  MEOH      DC1           -29.4271691620       -3.8530156462      -18.0371289577  MEOH      32              0.0000000000
     14114       724  MEOH      O1            -28.7175490538       -4.9753769998      -18.5629414960  MEOH      32              0.0000000000
     14115       724  MEOH      DO1           -28.7233982970       -4.9924815763      -18.5532678859  MEOH      32              0.0000000000
     14116       724  MEOH      HO1           -27.9560386586       -5.1359846451      -17.9839707693  MEOH      32              0.0000000000
     14117       724  MEOH      HO2           -29.3773968902       -5.6541852006      -18.7744131511  MEOH      32              0.0000000000
     14118       724  MEOH      H1A           -30.1137857599       -3.4544942309      -18.8313205004  MEOH      32              0.0000000000
     14119       724  MEOH      H1B           -28.7163115626       -3.0205696094      -17.8058088875  MEOH      32              0.0000000000
     14120       724  MEOH      H1C           -30.0034099349       -4.1205656782      -17.1454294227  MEOH      32              0.0000000000
     14121       724  MEOH      LP1A          -28.8461210303       -5.2694537164      -18.4233415979  MEOH      32              0.0000000000
     14122       724  MEOH      LP1B          -28.4784389958       -4.8720030175      -18.7966939291  MEOH      32              0.0000000000
     14123       725  MEOH      C1              1.3467176761      -33.1237417753      -34.2521654782  MEOH      33              0.0000000000
     14124       725  MEOH      DC1             1.3446264025      -33.1279972683      -34.2594620740  MEOH      33              0.0000000000
     14125       725  MEOH      O1              0.9112195001      -34.2500243661      -33.4848037716  MEOH      33              0.0000000000
     14126       725  MEOH      DO1             0.9076391426      -34.2495115388      -33.4858557052  MEOH      33              0.0000000000
     14127       725  MEOH      HO1             0.7644851188      -34.9852927156      -34.1002300277  MEOH      33              0.0000000000
     14128       725  MEOH      HO2             1.5640244200      -34.3503528022      -32.7743954795  MEOH      33              0.0000000000
     14129       725  MEOH      H1A             1.5015743517      -32.2463718483      -33.5884167141  MEOH      33              0.0000000000
     14130       725  MEOH      H1B             0.5826817640      -32.8611508865      -35.0148031052  MEOH      33              0.0000000000
     14131       725  MEOH      H1C             2.3093356570      -33.3622289223      -34.7529763260  MEOH      33              0.0000000000
     14132       725  MEOH      LP1A            1.1877103637      -34.4357457132      -33.3772845473  MEOH      33              0.0000000000
     14133       725  MEOH      LP1B            0.5625672237      -34.2465087756      -33.4543204853  MEOH      33              0.0000000000
     14134       726  MEOH      C1            -30.0545715142       31.8514051246      -21.1522496308  MEOH      34              0.0000000000
     14135       726  MEOH      DC1           -30.0685557640       31.8346882835      -21.1565409509  MEOH      34              0.0000000000
     14136       726  MEOH      O1            -30.9034281231       30.7192539311      -21.3480512075  MEOH      34              0.0000000000
     14137       726  MEOH      DO1           -30.9145646133       30.7097818748      -21.3518940260  MEOH      34              0.0000000000
     14138       726  MEOH      HO1           -30.4898788783       29.9880202028      -20.8631035219  MEOH      34              0.0000000000
     14139       726  MEOH      HO2           -31.8008769314       31.0177080565      -21.1326196142  MEOH      34              0.0000000000
     14140       726  MEOH      H1A           -30.3992731358       32.6999611922      -21.7811012780  MEOH      34              0.0000000000
     14141       726  MEOH      H1B           -29.0179043710       31.5981292052      -21.4612699272  MEOH      34              0.0000000000
     14142       726  MEOH      H1C           -30.0540083568       32.1685876470      -20.0874886575  MEOH      34              0.0000000000
     14143       726  MEOH      LP1A          -31.1489758313       30.7092159586      -21.0988413319  MEOH      34              0.0000000000
     14144       726  MEOH      LP1B          -30.8071927455       30.5459420576      -21.6364983371  MEOH      34              0.0000000000
     14145       727  MEOH      C1            -24.8931786409      -27.6646833354      -28.9000712025  MEOH      35              0.0000000000
     14146       727  MEOH      DC1           -24.8844383119      -27.6598778907      -28.8986216440  MEOH      35              0.0000000000
     14147       727  MEOH      O1            -23.9017536123      -28.6890979422      -29.0012592345  MEOH      35              0.0000000000
     14148       727  MEOH      DO1           -23.8888177166      -28.6889524950      -28.9946036861  MEOH      35              0.0000000000
     14149       727  MEOH      HO1           -24.2652697294      -29.4559839723      -28.5315339430  MEOH      35              0.0000000000
     14150       727  MEOH      HO2           -23.7015032156      -28.7651661154      -29.9473107195  MEOH      35              0.0000000000
     14151       727  MEOH      H1A           -24.5755487073      -26.7576007612      -29.4574161864  MEOH      35              0.0000000000
     14152       727  MEOH      H1B           -25.0603058008      -27.3953724315      -27.8352420378  MEOH      35              0.0000000000
     14153       727  MEOH      H1C           -25.8618970585      -28.0279062643      -29.3050091376  MEOH      35              0.0000000000
     14154       727  MEOH      LP1A          -23.9531100715      -28.8770906001      -29.2919846629  MEOH      35              0.0000000000
     14155       727  MEOH      LP1B          -23.6775902509      -28.6656093183      -28.7334924107  MEOH      35              0.0000000000
     14156       728  MEOH      C1              4.2849001689      -31.3937887426      -28.8512637507  MEOH      36              0.0000000000
     14157       728  MEOH      DC1             4.2803583664      -31.3953394931      -28.8580813032  MEOH      36              0.0000000000
     14158       728  MEOH      O1              4.5762675196      -30.7406921237      -30.0915413974  MEOH      36              0.0000000000
     14159       728  MEOH      DO1             4.5736603799      -30.7390428414      -30.1018330519  MEOH      36              0.0000000000
     14160       728  MEOH      HO1             4.9001116151      -29.8588600987      -29.8498861025  MEOH      36              0.0000000000
     14161       728  MEOH      HO2             5.1521848319      -31.3485505252      -30.5811610604  MEOH      36              0.0000000000
     14162       728  MEOH      H1A             3.9746698521      -32.4444179478      -29.0363486650  MEOH      36              0.0000000000
     14163       728  MEOH      H1B             3.4457131018      -30.8844670859      -28.3309969759  MEOH      36              0.0000000000
     14164       728  MEOH      H1C             5.1865862699      -31.3963800065      -28.2022056171  MEOH      36              0.0000000000
     14165       728  MEOH      LP1A            4.9064698889      -30.8067620345      -30.1869414086  MEOH      36              0.0000000000
     14166       728  MEOH      LP1B            4.2914591933      -30.5747869465      -30.2092685799  MEOH      36              0.0000000000
     14167       729  MEOH      C1            -19.7107437131       23.4738389367       24.5126178568  MEOH      37              0.0000000000
     14168       729  MEOH      DC1           -19.7128182406       23.4713331136       24.5038219327  MEOH      37              0.0000000000
     14169       729  MEOH      O1            -19.2982305520       24.5502215162       25.3600847318  MEOH      37              0.0000000000
     14170       729  MEOH      DO1           -19.3054995317       24.5506107724       25.3599941971  MEOH      37              0.0000000000
     14171       729  MEOH      HO1           -19.0301898021       25.2961002212       24.8008717888  MEOH      37              0.0000000000
     14172       729  MEOH      HO2           -19.9712316436       24.6351183546       26.0534548043  MEOH      37              0.0000000000
     14173       729  MEOH      H1A           -19.8853936719       22.5652129692       25.1276115515  MEOH      37              0.0000000000
     14174       729  MEOH      H1B           -18.9190057060       23.2541948603       23.7648020986  MEOH      37              0.0000000000
     14175       729  MEOH      H1C           -20.6561784757       23.7422083647       23.9944943582  MEOH      37              0.0000000000
     14176       729  MEOH      LP1A          -19.5731102234       24.7514426426       25.4404042471  MEOH      37              0.0000000000
     14177       729  MEOH      LP1B          -18.9565610685       24.5226971446       25.4308263250  MEOH      37              0.0000000000
     14178       730  MEOH      C1              6.6544866491       -5.5249180814        4.5793683992  MEOH      38              0.0000000000
     14179       730  MEOH      DC1             6.6598130525       -5.5144747004        4.5683004105  MEOH      38              0.0000000000
     14180       730  MEOH      O1              5.5124186083       -6.1275421360        5.1803102343  MEOH      38              0.0000000000
     14181       730  MEOH      DO1             5.5042846167       -6.1161331129        5.1587660448  MEOH      38              0.0000000000
     14182       730  MEOH      HO1             5.0374041102       -5.4568707745        5.6955394575  MEOH      38              0.0000000000
     14183       730  MEOH      HO2             5.0910926247       -6.6731768609        4.4979121375  MEOH      38              0.0000000000
     14184       730  MEOH      H1A             7.3420978414       -6.3276386706        4.2370943783  MEOH      38              0.0000000000
     14185       730  MEOH      H1B             7.1822000864       -4.8838996749        5.3175654807  MEOH      38              0.0000000000
     14186       730  MEOH      H1C             6.3391246932       -4.9188743317        3.7032526475  MEOH      38              0.0000000000
     14187       730  MEOH      LP1A            5.2382915705       -6.1069863137        4.9636726906  MEOH      38              0.0000000000
     14188       730  MEOH      LP1B            5.5973591628       -6.2594506677        5.4931764061  MEOH      38              0.0000000000
     14189       731  MEOH      C1            -15.7901115952      -36.8386906773       21.7590730395  MEOH      39              0.0000000000
     14190       731  MEOH      DC1           -15.7878977490      -36.8411334884       21.7658357646  MEOH      39              0.0000000000
     14191       731  MEOH      O1            -14.3861293831      -36.9772791109       21.9438629983  MEOH      39              0.0000000000
     14192       731  MEOH      DO1           -14.3830426094      -36.9833088277       21.9464514855  MEOH      39              0.0000000000
     14193       731  MEOH      HO1           -13.9471072793      -36.2883204976       21.4208949097  MEOH      39              0.0000000000
     14194       731  MEOH      HO2           -14.2649445177      -37.0079693354       22.9057737734  MEOH      39              0.0000000000
     14195       731  MEOH      H1A           -16.3352340747      -37.4999140556       22.4661417257  MEOH      39              0.0000000000
     14196       731  MEOH      H1B           -16.0426031046      -37.1106344166       20.7118788644  MEOH      39              0.0000000000
     14197       731  MEOH      H1C           -16.0904302819      -35.7849859591       21.9430188354  MEOH      39              0.0000000000
     14198       731  MEOH      LP1A          -14.2826406674      -36.7892483825       22.2203309546  MEOH      39              0.0000000000
     14199       731  MEOH      LP1B          -14.2551807615      -37.1975590448       21.7054742208  MEOH      39              0.0000000000
     14200       732  MEOH      C1              5.1589531249       19.5325582511       20.0775917091  MEOH      40              0.0000000000
     14201       732  MEOH      DC1             5.1572085939       19.5397656147       20.0692600629  MEOH      40              0.0000000000
     14202       732  MEOH      O1              4.6239281560       20.0530122879       18.8605444335  MEOH      40              0.0000000000
     14203       732  MEOH      DO1             4.6164048460       20.0701791746       18.8585020710  MEOH      40              0.0000000000
     14204       732  MEOH      HO1             3.8124368753       19.5552591420       18.6744699674  MEOH      40              0.0000000000
     14205       732  MEOH      HO2             4.6343509184       21.0193417479       18.9442029192  MEOH      40              0.0000000000
     14206       732  MEOH      H1A             6.1839270627       19.9256543779       20.2485445157  MEOH      40              0.0000000000
     14207       732  MEOH      H1B             5.1880697353       18.4224432109       20.0441578666  MEOH      40              0.0000000000
     14208       732  MEOH      H1C             4.5146409014       19.8462868867       20.9265658562  MEOH      40              0.0000000000
     14209       732  MEOH      LP1A            4.4091014843       20.3207040828       18.9290324183  MEOH      40              0.0000000000
     14210       732  MEOH      LP1B            4.7577670151       19.8800198721       18.5873031777  MEOH      40              0.0000000000
     14211       733  MEOH      C1            -12.9277844806      -20.3982728765       18.3085031331  MEOH      41              0.0000000000
     14212       733  MEOH      DC1           -12.8970290348      -20.3731471058       18.3086677619  MEOH      41              0.0000000000
     14213       733  MEOH      O1            -12.0163399574      -19.9513888435       17.3031905688  MEOH      41              0.0000000000
     14214       733  MEOH      DO1           -12.0053657537      -19.9425362574       17.2917681188  MEOH      41              0.0000000000
     14215       733  MEOH      HO1           -12.0545099709      -20.6265309872       16.6077582309  MEOH      41              0.0000000000
     14216       733  MEOH      HO2           -12.2476376871      -19.0270356933       17.1216069407  MEOH      41              0.0000000000
     14217       733  MEOH      H1A           -12.9197514861      -19.7209757710       19.1891421635  MEOH      41              0.0000000000
     14218       733  MEOH      H1B           -12.6199416365      -21.4141939110       18.6363113653  MEOH      41              0.0000000000
     14219       733  MEOH      H1C           -13.9613671722      -20.4544880827       17.9049344636  MEOH      41              0.0000000000
     14220       733  MEOH      LP1A          -12.1820233774      -19.7440467086       17.0750278123  MEOH      41              0.0000000000
     14221       733  MEOH      LP1B          -11.6954642259      -20.0745904506       17.3692218410  MEOH      41              0.0000000000
     14222       734  MEOH      C1             23.9812762060       21.7293839981      -32.7129356588  MEOH      42              0.0000000000
     14223       734  MEOH      DC1            23.9759608249       21.7297517217      -32.7118389555  MEOH      42              0.0000000000
     14224       734  MEOH      O1             24.1509375281       22.9185498831      -33.4799938745  MEOH      42              0.0000000000
     14225       734  MEOH      DO1            24.1364044094       22.9247627675      -33.4704678105  MEOH      42              0.0000000000
     14226       734  MEOH      HO1            25.0224520099       22.8598582271      -33.9017969079  MEOH      42              0.0000000000
     14227       734  MEOH      HO2            23.3474377293       23.0047143261      -34.0165232418  MEOH      42              0.0000000000
     14228       734  MEOH      H1A            23.0860676007       21.8188830393      -32.0610825506  MEOH      42              0.0000000000
     14229       734  MEOH      H1B            24.8775396645       21.5602661357      -32.0785604042  MEOH      42              0.0000000000
     14230       734  MEOH      H1C            23.8461448499       20.8564409181      -33.3867538067  MEOH      42              0.0000000000
     14231       734  MEOH      LP1A           24.0241249222       22.8718559649      -33.8028533501  MEOH      42              0.0000000000
     14232       734  MEOH      LP1B           24.2958859951       23.1686372176      -33.2826457885  MEOH      42              0.0000000000
     14233       735  MEOH      C1             -2.9684210701        7.4745357432        1.9501813485  MEOH      43              0.0000000000
     14234       735  MEOH      DC1            -2.9584880849        7.4814547196        1.9650349246  MEOH      43              0.0000000000
     14235       735  MEOH      O1             -2.3453900550        8.7377383665        2.1826912978  MEOH      43              0.0000000000
     14236       735  MEOH      DO1            -2.3343308146        8.7401503621        2.1996826942  MEOH      43              0.0000000000
     14237       735  MEOH      HO1            -2.4755224246        8.9636045478        3.1170092494  MEOH      43              0.0000000000
     14238       735  MEOH      HO2            -1.4621042022        8.6806700181        1.7858924740  MEOH      43              0.0000000000
     14239       735  MEOH      H1A            -3.0042484776        7.2607933752        0.8605247059  MEOH      43              0.0000000000
     14240       735  MEOH      H1B            -4.0097565356        7.4732434086        2.3374019309  MEOH      43              0.0000000000
     14241       735  MEOH      H1C            -2.3772186890        6.6810328000        2.4553088807  MEOH      43              0.0000000000
     14242       735  MEOH      LP1A           -2.0103892515        8.6912163917        2.2727477667  MEOH      43              0.0000000000
     14243       735  MEOH      LP1B           -2.5726849536        8.9965509036        2.1206179567  MEOH      43              0.0000000000
     14244       736  MEOH      C1             -0.7340549930        1.8572779494       13.5500384110  MEOH      44              0.0000000000
     14245       736  MEOH      DC1            -0.7323283807        1.8434952880       13.5468672716  MEOH      44              0.0000000000
     14246       736  MEOH      O1              0.5677226511        1.5312486548       13.0619078862  MEOH      44              0.0000000000
     14247       736  MEOH      DO1             0.5680092622        1.5294140523       13.0503537650  MEOH      44              0.0000000000
     14248       736  MEOH      HO1             0.6912874069        2.0274908400       12.2376655403  MEOH      44              0.0000000000
     14249       736  MEOH      HO2             1.1683086261        1.6963659388       13.8055023792  MEOH      44              0.0000000000
     14250       736  MEOH      H1A            -0.9219609934        1.3223140255       14.5054576567  MEOH      44              0.0000000000
     14251       736  MEOH      H1B            -1.4992728157        1.5663251833       12.7989663949  MEOH      44              0.0000000000
     14252       736  MEOH      H1C            -0.8111521792        2.9501525817       13.7344348932  MEOH      44              0.0000000000
     14253       736  MEOH      LP1A            0.8044103531        1.7516414382       13.1957210123  MEOH      44              0.0000000000
     14254       736  MEOH      LP1B            0.5509272823        1.2492650001       12.8552605196  MEOH      44              0.0000000000
     14255       737  MEOH      C1             -4.0571767100      -17.4357207016      -16.9533103355  MEOH      45              0.0000000000
     14256       737  MEOH      DC1            -4.0506437609      -17.4363678844      -16.9534132553  MEOH      45              0.0000000000
     14257       737  MEOH      O1             -2.9995483612      -18.2010590597      -17.5237641441  MEOH      45              0.0000000000
     14258       737  MEOH      DO1            -2.9909792723      -18.1992706977      -17.5193767374  MEOH      45              0.0000000000
     14259       737  MEOH      HO1            -3.2390278749      -18.4035324175      -18.4416716028  MEOH      45              0.0000000000
     14260       737  MEOH      HO2            -2.1778005297      -17.7272494566      -17.3209465870  MEOH      45              0.0000000000
     14261       737  MEOH      H1A            -3.8752468328      -17.2880924666      -15.8672954071  MEOH      45              0.0000000000
     14262       737  MEOH      H1B            -5.0215022171      -17.9689750827      -17.0948627337  MEOH      45              0.0000000000
     14263       737  MEOH      H1C            -4.1124945366      -16.4441778788      -17.4514104965  MEOH      45              0.0000000000
     14264       737  MEOH      LP1A           -2.7610080921      -17.9881451759      -17.6661236119  MEOH      45              0.0000000000
     14265       737  MEOH      LP1B           -3.0546224140      -18.5420616942      -17.4673367400  MEOH      45              0.0000000000
     14266       738  MEOH      C1            -28.5521729878       -4.9374166982       16.4684800844  MEOH      46              0.0000000000
     14267       738  MEOH      DC1           -28.5639988340       -4.9336712210       16.4653295370  MEOH      46              0.0000000000
     14268       738  MEOH      O1            -28.8497672430       -4.9112690379       15.0677189725  MEOH      46              0.0000000000
     14269       738  MEOH      DO1           -28.8602145612       -4.8989622329       15.0649080663  MEOH      46              0.0000000000
     14270       738  MEOH      HO1           -28.9848634771       -5.8317728430       14.7932708837  MEOH      46              0.0000000000
     14271       738  MEOH      HO2           -29.5362769140       -4.2379807879       14.9400968582  MEOH      46              0.0000000000
     14272       738  MEOH      H1A           -28.1933868827       -3.9379933829       16.7952010173  MEOH      46              0.0000000000
     14273       738  MEOH      H1B           -27.7331459844       -5.6591247547       16.6750067143  MEOH      46              0.0000000000
     14274       738  MEOH      H1C           -29.4516803505       -5.2184358897       17.0568980648  MEOH      46              0.0000000000
     14275       738  MEOH      LP1A          -29.1946728186       -4.8767742957       15.0192395269  MEOH      46              0.0000000000
     14276       738  MEOH      LP1B          -28.5536553703       -4.9299525716       14.8820615342  MEOH      46              0.0000000000
     14277       739  MEOH      C1            -11.8978998254      -17.8565271715       22.1757119336  MEOH      47              0.0000000000
     14278       739  MEOH      DC1           -11.8920762297      -17.8529840623       22.1832563857  MEOH      47              0.0000000000
     14279       739  MEOH      O1            -11.6544804263      -19.1748732914       22.6521462929  MEOH      47              0.0000000000
     14280       739  MEOH      DO1           -11.6406685046      -19.1732847726       22.6535124284  MEOH      47              0.0000000000
     14281       739  MEOH      HO1           -11.8805609070      -19.7915789982       21.9383804437  MEOH      47              0.0000000000
     14282       739  MEOH      HO2           -10.7765413600      -19.1654194628       23.0644976255  MEOH      47              0.0000000000
     14283       739  MEOH      H1A           -11.8526678884      -17.1394332551       23.0230910622  MEOH      47              0.0000000000
     14284       739  MEOH      H1B           -12.9064663258      -17.8094342132       21.7121422328  MEOH      47              0.0000000000
     14285       739  MEOH      H1C           -11.1299606317      -17.5829091058       21.4209115956  MEOH      47              0.0000000000
     14286       739  MEOH      LP1A          -11.3235617120      -19.2671461663       22.5852245394  MEOH      47              0.0000000000
     14287       739  MEOH      LP1B          -11.9410066396      -19.3001642679       22.8093242185  MEOH      47              0.0000000000
     14288       740  MEOH      C1              9.3682898217      -10.4946494573       27.4258433285  MEOH      48              0.0000000000
     14289       740  MEOH      DC1             9.3708291841      -10.4875839604       27.4283593118  MEOH      48              0.0000000000
     14290       740  MEOH      O1              7.9599905034      -10.2570447517       27.4603866954  MEOH      48              0.0000000000
     14291       740  MEOH      DO1             7.9594661262      -10.2601273472       27.4716413973  MEOH      48              0.0000000000
     14292       740  MEOH      HO1             7.6732173411      -10.1098518061       26.5455121739  MEOH      48              0.0000000000
     14293       740  MEOH      HO2             7.5819147613      -10.9733202871       27.9941545207  MEOH      48              0.0000000000
     14294       740  MEOH      H1A             9.7647706510      -10.5410976976       28.4626492472  MEOH      48              0.0000000000
     14295       740  MEOH      H1B             9.8845718698       -9.6854484520       26.8664082725  MEOH      48              0.0000000000
     14296       740  MEOH      H1C             9.5817532026      -11.4585941273       26.9163680503  MEOH      48              0.0000000000
     14297       740  MEOH      LP1A            7.7867926777      -10.5600783177       27.4344411554  MEOH      48              0.0000000000
     14298       740  MEOH      LP1B            7.8972512125       -9.9154278966       27.5035341835  MEOH      48              0.0000000000
     14299       741  MEOH      C1              3.4746251174       13.2522533341      -21.2134952432  MEOH      49              0.0000000000
     14300       741  MEOH      DC1             3.4916983119       13.2465306929      -21.2367806617  MEOH      49              0.0000000000
     14301       741  MEOH      O1              3.6170203564       12.9602925621      -19.8239685921  MEOH      49              0.0000000000
     14302       741  MEOH      DO1             3.6391817791       12.9617806688      -19.8392749011  MEOH      49              0.0000000000
     14303       741  MEOH      HO1             3.8552875188       12.0301628516      -19.6861735183  MEOH      49              0.0000000000
     14304       741  MEOH      HO2             4.0542429329       13.7104403582      -19.3915166265  MEOH      49              0.0000000000
     14305       741  MEOH      H1A             2.8664281484       14.1758086665      -21.3205606204  MEOH      49              0.0000000000
     14306       741  MEOH      H1B             2.9442095377       12.4220942562      -21.7271256741  MEOH      49              0.0000000000
     14307       741  MEOH      H1C             4.4771613511       13.4214135023      -21.6614092285  MEOH      49              0.0000000000
     14308       741  MEOH      LP1A            3.9464163347       13.0205253323      -19.7221339083  MEOH      49              0.0000000000
     14309       741  MEOH      LP1B            3.3089341528       12.8619668332      -19.6901218804  MEOH      49              0.0000000000
     14310       742  MEOH      C1             28.1568158395      -36.9299910725      -28.5860911479  MEOH      50              0.0000000000
     14311       742  MEOH      DC1            28.1508070926      -36.9287155960      -28.5682162070  MEOH      50              0.0000000000
     14312       742  MEOH      O1             27.4370492497      -36.2490454210      -27.5552299844  MEOH      50              0.0000000000
     14313       742  MEOH      DO1            27.4335974818      -36.2414963687      -27.5457980504  MEOH      50              0.0000000000
     14314       742  MEOH      HO1            26.8438572605      -36.9040872145      -27.1553005981  MEOH      50              0.0000000000
     14315       742  MEOH      HO2            28.1016142175      -35.7829223264      -27.0242095852  MEOH      50              0.0000000000
     14316       742  MEOH      H1A            28.7940690165      -36.2051324944      -29.1363723779  MEOH      50              0.0000000000
     14317       742  MEOH      H1B            27.4585052790      -37.3938698619      -29.3151314968  MEOH      50              0.0000000000
     14318       742  MEOH      H1C            28.8083230280      -37.7159108908      -28.1476970073  MEOH      50              0.0000000000
     14319       742  MEOH      LP1A           27.6138796885      -36.2672041042      -27.2537316293  MEOH      50              0.0000000000
     14320       742  MEOH      LP1B           27.1453121485      -36.1071676677      -27.6866079387  MEOH      50              0.0000000000
     14321       743  MEOH      C1             10.4255923400      -13.6869719116      -13.6622583541  MEOH      51              0.0000000000
     14322       743  MEOH      DC1            10.4370215929      -13.6820746417      -13.6538947853  MEOH      51              0.0000000000
     14323       743  MEOH      O1             10.0485357041      -14.9592766876      -14.1882463615  MEOH      51              0.0000000000
     14324       743  MEOH      DO1            10.0640211997      -14.9471478808      -14.1812024324  MEOH      51              0.0000000000
     14325       743  MEOH      HO1            10.1748414106      -15.6619050749      -13.5315423050  MEOH      51              0.0000000000
     14326       743  MEOH      HO2             9.1662831754      -14.8287658388      -14.5696875685  MEOH      51              0.0000000000
     14327       743  MEOH      H1A            10.2881204663      -12.9145248329      -14.4488637167  MEOH      51              0.0000000000
     14328       743  MEOH      H1B            11.4915817506      -13.6916260977      -13.3492632811  MEOH      51              0.0000000000
     14329       743  MEOH      H1C             9.7698123376      -13.4301051115      -12.8030185532  MEOH      51              0.0000000000
     14330       743  MEOH      LP1A            9.7085237686      -15.0173433978      -14.1289155868  MEOH      51              0.0000000000
     14331       743  MEOH      LP1B           10.3225266615      -15.1096547983      -14.3457753400  MEOH      51              0.0000000000
     14332       744  MEOH      C1            -28.0018744162        3.0834004010       27.1520212170  MEOH      52              0.0000000000
     14333       744  MEOH      DC1           -28.0043244388        3.0716474022       27.1534975712  MEOH      52              0.0000000000
     14334       744  MEOH      O1            -28.9858892199        3.9027132100       26.5170019649  MEOH      52              0.0000000000
     14335       744  MEOH      DO1           -28.9873164927        3.8945444934       26.5283428496  MEOH      52              0.0000000000
     14336       744  MEOH      HO1           -28.5597363199        4.7283917580       26.2385263967  MEOH      52              0.0000000000
     14337       744  MEOH      HO2           -29.4087078688        3.3328306228       25.8556713162  MEOH      52              0.0000000000
     14338       744  MEOH      H1A           -28.4974671229        2.1629442861       27.5281454115  MEOH      52              0.0000000000
     14339       744  MEOH      H1B           -27.5395860111        3.6257045952       28.0043806441  MEOH      52              0.0000000000
     14340       744  MEOH      H1C           -27.2096060054        2.7835747389       26.4331774661  MEOH      52              0.0000000000
     14341       744  MEOH      LP1A          -28.9982969753        3.8312531660       26.1745994099  MEOH      52              0.0000000000
     14342       744  MEOH      LP1B          -29.1462273823        4.1032948373       26.7548226631  MEOH      52              0.0000000000
     14343       745  MEOH      C1              1.0576027821       27.0023400167       36.3675193295  MEOH      53              0.0000000000
     14344       745  MEOH      DC1             1.0580761724       26.9991125267       36.3371426699  MEOH      53              0.0000000000
     14345       745  MEOH      O1              2.3966661845       27.3708167014       36.6923875233  MEOH      53              0.0000000000
     14346       745  MEOH      DO1             2.3825085234       27.3994726117       36.6798200945  MEOH      53              0.0000000000
     14347       745  MEOH      HO1             2.8790175083       26.5584546345       36.9121716767  MEOH      53              0.0000000000
     14348       745  MEOH      HO2             2.3125717684       28.0309180351       37.3981455260  MEOH      53              0.0000000000
     14349       745  MEOH      H1A             0.4455463643       26.7947665691       37.2711902905  MEOH      53              0.0000000000
     14350       745  MEOH      H1B             1.0440988888       26.0188033258       35.8509980593  MEOH      53              0.0000000000
     14351       745  MEOH      H1C             0.5584772682       27.8062544470       35.7853541367  MEOH      53              0.0000000000
     14352       745  MEOH      LP1A            2.5937567299       27.3729453053       36.4031630673  MEOH      53              0.0000000000
     14353       745  MEOH      LP1B            2.4217694795       27.4415636482       37.0342423084  MEOH      53              0.0000000000
     14354       746  MEOH      C1             12.8499956113       -8.3993514097      -11.0943802530  MEOH      54              0.0000000000
     14355       746  MEOH      DC1            12.8582417800       -8.4185142225      -11.1050501352  MEOH      54              0.0000000000
     14356       746  MEOH      O1             13.0836233396       -9.1085210401      -12.3110781102  MEOH      54              0.0000000000
     14357       746  MEOH      DO1            13.0993085963       -9.1355011041      -12.3009612796  MEOH      54              0.0000000000
     14358       746  MEOH      HO1            13.9197570369       -8.7971685612      -12.6916567145  MEOH      54              0.0000000000
     14359       746  MEOH      HO2            12.8313630841      -10.0346329108      -12.1711439552  MEOH      54              0.0000000000
     14360       746  MEOH      H1A            11.7609295611       -8.3376733739      -10.8835439227  MEOH      54              0.0000000000
     14361       746  MEOH      H1B            13.2177773874       -7.3526609666      -11.1535130123  MEOH      54              0.0000000000
     14362       746  MEOH      H1C            13.3429897708       -8.9244362566      -10.2484702916  MEOH      54              0.0000000000
     14363       746  MEOH      LP1A           13.2606915324       -9.4032692781      -12.2457303385  MEOH      54              0.0000000000
     14364       746  MEOH      LP1B           12.9359328712       -8.9384921799      -12.5789917385  MEOH      54              0.0000000000
     14365       747  MEOH      C1            -14.2362327684        8.1812268535      -24.6001414349  MEOH      55              0.0000000000
     14366       747  MEOH      DC1           -14.2496480457        8.1877723041      -24.5967954153  MEOH      55              0.0000000000
     14367       747  MEOH      O1            -14.0452843333        8.6083307603      -25.9464845662  MEOH      55              0.0000000000
     14368       747  MEOH      DO1           -14.0564643503        8.6140563008      -25.9474044149  MEOH      55              0.0000000000
     14369       747  MEOH      HO1           -13.3904871629        8.0202561297      -26.3542944416  MEOH      55              0.0000000000
     14370       747  MEOH      HO2           -14.9324277650        8.7229340104      -26.3216413696  MEOH      55              0.0000000000
     14371       747  MEOH      H1A           -14.7637522879        8.9681172759      -24.0197556841  MEOH      55              0.0000000000
     14372       747  MEOH      H1B           -13.2474774741        7.9822216013      -24.1342220437  MEOH      55              0.0000000000
     14373       747  MEOH      H1C           -14.8272606394        7.2413512900      -24.5596324037  MEOH      55              0.0000000000
     14374       747  MEOH      LP1A          -14.2743844194        8.4476210548      -26.1566881368  MEOH      55              0.0000000000
     14375       747  MEOH      LP1B          -13.7917556218        8.8491978904      -25.9608448611  MEOH      55              0.0000000000
     14376       748  MEOH      C1            -30.2559332038      -15.6702844045      -20.1865619540  MEOH      56              0.0000000000
     14377       748  MEOH      DC1           -30.2625683601      -15.6740272136      -20.1846916086  MEOH      56              0.0000000000
     14378       748  MEOH      O1            -31.5662503445      -16.2065079435      -20.3308254516  MEOH      56              0.0000000000
     14379       748  MEOH      DO1           -31.5720008269      -16.2103088081      -20.3206721756  MEOH      56              0.0000000000
     14380       748  MEOH      HO1           -31.8648744243      -16.0274000960      -21.2361673974  MEOH      56              0.0000000000
     14381       748  MEOH      HO2           -31.5263156936      -17.1152368240      -19.9939025445  MEOH      56              0.0000000000
     14382       748  MEOH      H1A           -29.9545356063      -15.7669623164      -19.1216047387  MEOH      56              0.0000000000
     14383       748  MEOH      H1B           -30.2456530870      -14.5977097836      -20.4760425266  MEOH      56              0.0000000000
     14384       748  MEOH      H1C           -29.5356928852      -16.2351258665      -20.8162674469  MEOH      56              0.0000000000
     14385       748  MEOH      LP1A          -31.5482778577      -16.5397236556      -20.4363919182  MEOH      56              0.0000000000
     14386       748  MEOH      LP1B          -31.8043720281      -15.9671331994      -20.2386419621  MEOH      56              0.0000000000
     14387       749  MEOH      C1             -4.9504831313       32.8594895728       -9.7132508521  MEOH      57              0.0000000000
     14388       749  MEOH      DC1            -4.9608889128       32.8741993921       -9.7099276942  MEOH      57              0.0000000000
     14389       749  MEOH      O1             -6.1151983771       33.6581559802       -9.4944728425  MEOH      57              0.0000000000
     14390       749  MEOH      DO1            -6.1269541713       33.6661199227       -9.4988142462  MEOH      57              0.0000000000
     14391       749  MEOH      HO1            -6.1604921539       34.2871537265      -10.2315008678  MEOH      57              0.0000000000
     14392       749  MEOH      HO2            -6.8393203190       33.0382456313       -9.3148661259  MEOH      57              0.0000000000
     14393       749  MEOH      H1A            -4.7623379581       32.2121966498       -8.8301119810  MEOH      57              0.0000000000
     14394       749  MEOH      H1B            -4.0653235886       33.5109712503       -9.8756860997  MEOH      57              0.0000000000
     14395       749  MEOH      H1C            -5.0946953071       32.2095711385      -10.6027056726  MEOH      57              0.0000000000
     14396       749  MEOH      LP1A           -6.3935563047       33.5072801775       -9.6436484315  MEOH      57              0.0000000000
     14397       749  MEOH      LP1B           -6.0341779041       33.9369688686       -9.2990270541  MEOH      57              0.0000000000
     14398       750  MEOH      C1             24.1425762728      -26.1975393265       -4.3794018252  MEOH      58              0.0000000000
     14399       750  MEOH      DC1            24.1307033805      -26.1911580497       -4.3802814595  MEOH      58              0.0000000000
     14400       750  MEOH      O1             23.7469255586      -24.8330292508       -4.2155092485  MEOH      58              0.0000000000
     14401       750  MEOH      DO1            23.7363866378      -24.8262629810       -4.2317936133  MEOH      58              0.0000000000
     14402       750  MEOH      HO1            24.5641484243      -24.3120943243       -4.1745997117  MEOH      58              0.0000000000
     14403       750  MEOH      HO2            23.0591629209      -24.6589343216       -4.8770026428  MEOH      58              0.0000000000
     14404       750  MEOH      H1A            23.2690429135      -26.8651233629       -4.2194267485  MEOH      58              0.0000000000
     14405       750  MEOH      H1B            24.9267174802      -26.4608329254       -3.6377010448  MEOH      58              0.0000000000
     14406       750  MEOH      H1C            24.5374547250      -26.3622087193       -5.4047193374  MEOH      58              0.0000000000
     14407       750  MEOH      LP1A           23.7009864042      -24.6832908350       -4.5285076525  MEOH      58              0.0000000000
     14408       750  MEOH      LP1B           23.7156012688      -24.7575238223       -3.8751892239  MEOH      58              0.0000000000
     14409       751  MEOH      C1             -2.7113428177        6.8897780702      -33.2494093657  MEOH      59              0.0000000000
     14410       751  MEOH      DC1            -2.7106944207        6.8901485732      -33.2354879554  MEOH      59              0.0000000000
     14411       751  MEOH      O1             -3.6894623995        7.8491508369      -32.8447506547  MEOH      59              0.0000000000
     14412       751  MEOH      DO1            -3.6770125928        7.8598932441      -32.8302437299  MEOH      59              0.0000000000
     14413       751  MEOH      HO1            -4.2252595047        7.4767148499      -32.1270369935  MEOH      59              0.0000000000
     14414       751  MEOH      HO2            -3.2594619387        8.7182647299      -32.8194396955  MEOH      59              0.0000000000
     14415       751  MEOH      H1A            -2.3596311324        7.1420444584      -34.2726305352  MEOH      59              0.0000000000
     14416       751  MEOH      H1B            -3.1513017556        5.8703849377      -33.2893439997  MEOH      59              0.0000000000
     14417       751  MEOH      H1C            -1.8473707229        6.9067384302      -32.5511360913  MEOH      59              0.0000000000
     14418       751  MEOH      LP1A           -3.5584614559        8.0551918347      -32.5939801221  MEOH      59              0.0000000000
     14419       751  MEOH      LP1B           -3.9804142376        7.8112528540      -33.0355667201  MEOH      59              0.0000000000
     14420       752  MEOH      C1             -5.2619815165       21.3161741398        1.5808302349  MEOH      60              0.0000000000
     14421       752  MEOH      DC1            -5.2611555542       21.3152677211        1.5839400042  MEOH      60              0.0000000000
     14422       752  MEOH      O1             -6.2925625954       20.5343366461        2.1896469612  MEOH      60              0.0000000000
     14423       752  MEOH      DO1            -6.2919751615       20.5399552942        2.2010103056  MEOH      60              0.0000000000
     14424       752  MEOH      HO1            -6.2944862030       19.6583291422        1.7731050632  MEOH      60              0.0000000000
     14425       752  MEOH      HO2            -6.1790854242       20.6316913197        3.1480544944  MEOH      60              0.0000000000
     14426       752  MEOH      H1A            -5.3611174101       22.3729535371        1.9090228318  MEOH      60              0.0000000000
     14427       752  MEOH      H1B            -5.3520090516       21.2752133193        0.4742416690  MEOH      60              0.0000000000
     14428       752  MEOH      H1C            -4.2632435694       20.9364693774        1.8852441108  MEOH      60              0.0000000000
     14429       752  MEOH      LP1A           -6.1657799400       20.3658500782        2.4690005628  MEOH      60              0.0000000000
     14430       752  MEOH      LP1B           -6.5946222902       20.5807471636        2.0190421412  MEOH      60              0.0000000000
     14431       753  MEOH      C1             15.5368720234      -33.5417985686       33.8457254061  MEOH      61              0.0000000000
     14432       753  MEOH      DC1            15.5172461854      -33.5375947941       33.8673037643  MEOH      61              0.0000000000
     14433       753  MEOH      O1             16.5015709882      -32.5682744306       34.2468461261  MEOH      61              0.0000000000
     14434       753  MEOH      DO1            16.4944326181      -32.5646523201       34.2558654609  MEOH      61              0.0000000000
     14435       753  MEOH      HO1            17.0583506966      -32.4147229950       33.4675398232  MEOH      61              0.0000000000
     14436       753  MEOH      HO2            16.0027651970      -31.8427321475       34.6538856549  MEOH      61              0.0000000000
     14437       753  MEOH      H1A            14.9202265149      -33.8491727150       34.7172702716  MEOH      61              0.0000000000
     14438       753  MEOH      H1B            16.0586393097      -34.4352725789       33.4410229322  MEOH      61              0.0000000000
     14439       753  MEOH      H1C            14.8926858203      -33.1193890566       33.0451535232  MEOH      61              0.0000000000
     14440       753  MEOH      LP1A           16.3778627543      -32.2460900895       34.1885921717  MEOH      61              0.0000000000
     14441       753  MEOH      LP1B           16.7823445156      -32.7269377366       34.3828320874  MEOH      61              0.0000000000
     14442       754  MEOH      C1              4.8008903746      -34.1971318968       -7.5445903839  MEOH      62              0.0000000000
     14443       754  MEOH      DC1             4.8059068932      -34.1827450904       -7.5695051602  MEOH      62              0.0000000000
     14444       754  MEOH      O1              3.4597680904      -34.6488479654       -7.6936452426  MEOH      62              0.0000000000
     14445       754  MEOH      DO1             3.4557271468      -34.6382734902       -7.7140690008  MEOH      62              0.0000000000
     14446       754  MEOH      HO1             3.1540806387      -34.9414951882       -6.8208263689  MEOH      62              0.0000000000
     14447       754  MEOH      HO2             2.9924745518      -33.9828463536       -8.2218294925  MEOH      62              0.0000000000
     14448       754  MEOH      H1A             5.2294863276      -33.9405044749       -8.5369456005  MEOH      62              0.0000000000
     14449       754  MEOH      H1B             5.4101770390      -34.9993869345       -7.0761060032  MEOH      62              0.0000000000
     14450       754  MEOH      H1C             4.8155776615      -33.3077633254       -6.8789111598  MEOH      62              0.0000000000
     14451       754  MEOH      LP1A            3.2378433612      -34.3820304826       -7.6482817614  MEOH      62              0.0000000000
     14452       754  MEOH      LP1B            3.4564576080      -34.9891768617       -7.7752864276  MEOH      62              0.0000000000
     14453       755  MEOH      C1             -1.0542124126       -4.0014986306        7.0548336197  MEOH      63              0.0000000000
     14454       755  MEOH      DC1            -1.0529814021       -4.0051079132        7.0639516392  MEOH      63              0.0000000000
     14455       755  MEOH      O1             -0.9555700864       -4.3080427217        8.4477371733  MEOH      63              0.0000000000
     14456       755  MEOH      DO1            -0.9547813463       -4.3006917492        8.4583472910  MEOH      63              0.0000000000
     14457       755  MEOH      HO1            -1.7819938382       -4.7557992093        8.6873992498  MEOH      63              0.0000000000
     14458       755  MEOH      HO2            -0.1119238173       -4.7759928134        8.5486514157  MEOH      63              0.0000000000
     14459       755  MEOH      H1A            -0.1403277181       -3.4657863961        6.7199483123  MEOH      63              0.0000000000
     14460       755  MEOH      H1B            -1.9320235836       -3.3475154667        6.8649005507  MEOH      63              0.0000000000
     14461       755  MEOH      H1C            -1.1608785600       -4.9374789207        6.4658648348  MEOH      63              0.0000000000
     14462       755  MEOH      LP1A           -0.8061518457       -4.6215722859        8.4910199843  MEOH      63              0.0000000000
     14463       755  MEOH      LP1B           -1.0780463382       -4.0410472945        8.6380343347  MEOH      63              0.0000000000
     14464       756  MEOH      C1            -10.1200920529       17.1544074768       35.4176143208  MEOH      64              0.0000000000
     14465       756  MEOH      DC1           -10.1093056561       17.1556759393       35.4100039227  MEOH      64              0.0000000000
     14466       756  MEOH      O1             -9.2795109981       18.2895929818       35.6416979543  MEOH      64              0.0000000000
     14467       756  MEOH      DO1            -9.2797710504       18.2914173341       35.6305983438  MEOH      64              0.0000000000
     14468       756  MEOH      HO1            -8.5757312374       18.3126074272       34.9745664947  MEOH      64              0.0000000000
     14469       756  MEOH      HO2            -9.8724028640       19.0486423336       35.7566906356  MEOH      64              0.0000000000
     14470       756  MEOH      H1A           -10.7808201592       16.9931369678       36.2961080277  MEOH      64              0.0000000000
     14471       756  MEOH      H1B            -9.5199788844       16.2276152910       35.2941581364  MEOH      64              0.0000000000
     14472       756  MEOH      H1C           -10.7802651371       17.3264462929       34.5407476569  MEOH      64              0.0000000000
     14473       756  MEOH      LP1A           -9.4043726003       18.5670231845       35.4686602043  MEOH      64              0.0000000000
     14474       756  MEOH      LP1B           -9.0203649322       18.2051711053       35.8612799738  MEOH      64              0.0000000000
     14475       757  MEOH      C1             17.0697467173       -6.3711469038       36.5622075397  MEOH      65              0.0000000000
     14476       757  MEOH      DC1            17.0650697263       -6.3745090629       36.5711883456  MEOH      65              0.0000000000
     14477       757  MEOH      O1             18.3594769631       -5.7854081353       36.6882234088  MEOH      65              0.0000000000
     14478       757  MEOH      DO1            18.3497924409       -5.7889067133       36.6853037142  MEOH      65              0.0000000000
     14479       757  MEOH      HO1            18.3287868728       -5.0143811243       37.2759950198  MEOH      65              0.0000000000
     14480       757  MEOH      HO2            18.9567177126       -6.5119541037       36.9255721904  MEOH      65              0.0000000000
     14481       757  MEOH      H1A            17.1086564963       -7.1657752348       35.7867252094  MEOH      65              0.0000000000
     14482       757  MEOH      H1B            16.3305134229       -5.6101404492       36.2324738371  MEOH      65              0.0000000000
     14483       757  MEOH      H1C            16.7609907862       -6.8354952013       37.5231297188  MEOH      65              0.0000000000
     14484       757  MEOH      LP1A           18.5331440876       -5.9341746802       36.9531917937  MEOH      65              0.0000000000
     14485       757  MEOH      LP1B           18.4072473667       -5.5460012383       36.4374200472  MEOH      65              0.0000000000
     14486       758  MEOH      C1            -36.0913812563       16.3294452451       13.4533854361  MEOH      66              0.0000000000
     14487       758  MEOH      DC1           -36.1106681699       16.3409362489       13.4704434895  MEOH      66              0.0000000000
     14488       758  MEOH      O1            -34.7882605986       16.3637151282       12.8784999872  MEOH      66              0.0000000000
     14489       758  MEOH      DO1           -34.8011571886       16.3844988874       12.8942345788  MEOH      66              0.0000000000
     14490       758  MEOH      HO1           -34.6752270094       15.5480375119       12.3658661649  MEOH      66              0.0000000000
     14491       758  MEOH      HO2           -34.7278920720       17.2219839094       12.4305822042  MEOH      66              0.0000000000
     14492       758  MEOH      H1A           -36.2469413190       17.2149265543       14.1061066000  MEOH      66              0.0000000000
     14493       758  MEOH      H1B           -36.2091215818       15.3984684624       14.0481462690  MEOH      66              0.0000000000
     14494       758  MEOH      H1C           -36.8466500590       16.3518520895       12.6388991133  MEOH      66              0.0000000000
     14495       758  MEOH      LP1A          -34.7991570728       16.5221017944       12.5665786336  MEOH      66              0.0000000000
     14496       758  MEOH      LP1B          -34.5564867252       16.2212923815       13.0987194978  MEOH      66              0.0000000000
     14497       759  MEOH      C1             14.1195361069        2.1104432336       33.9742314666  MEOH      67              0.0000000000
     14498       759  MEOH      DC1            14.1131792105        2.1146609303       33.9777804034  MEOH      67              0.0000000000
     14499       759  MEOH      O1             14.6106636366        3.3688043599       34.4553306552  MEOH      67              0.0000000000
     14500       759  MEOH      DO1            14.5952201952        3.3746102472       34.4586118972  MEOH      67              0.0000000000
     14501       759  MEOH      HO1            14.8079490938        3.2667526018       35.3995572631  MEOH      67              0.0000000000
     14502       759  MEOH      HO2            15.3311080655        3.6135063405       33.8536822808  MEOH      67              0.0000000000
     14503       759  MEOH      H1A            13.9293595216        2.1815337247       32.8819402926  MEOH      67              0.0000000000
     14504       759  MEOH      H1B            13.1714309892        1.8283555555       34.4800419328  MEOH      67              0.0000000000
     14505       759  MEOH      H1C            14.8671499466        1.3103690719       34.1620502189  MEOH      67              0.0000000000
     14506       759  MEOH      LP1A           14.9581115992        3.3845680863       34.4161973159  MEOH      67              0.0000000000
     14507       759  MEOH      LP1B           14.3440200632        3.5676238635       34.5642894075  MEOH      67              0.0000000000
     14508       760  MEOH      C1             20.6368700488       -2.4917050081        7.5418263958  MEOH      68              0.0000000000
     14509       760  MEOH      DC1            20.6381106469       -2.4987935211        7.5261607263  MEOH      68              0.0000000000
     14510       760  MEOH      O1             19.3512455861       -1.8898915820        7.7119502594  MEOH      68              0.0000000000
     14511       760  MEOH      DO1            19.3530673510       -1.9007128193        7.7051585424  MEOH      68              0.0000000000
     14512       760  MEOH      HO1            18.9942010010       -1.5952327192        6.8595446521  MEOH      68              0.0000000000
     14513       760  MEOH      HO2            18.8569675735       -2.4306989474        8.3476519502  MEOH      68              0.0000000000
     14514       760  MEOH      H1A            21.1845082188       -2.4925917684        8.5084766163  MEOH      68              0.0000000000
     14515       760  MEOH      H1B            21.2269557320       -1.9267898573        6.7888385078  MEOH      68              0.0000000000
     14516       760  MEOH      H1C            20.5347432799       -3.5612828410        7.2591704522  MEOH      68              0.0000000000
     14517       760  MEOH      LP1A           19.1011099376       -2.1337405696        7.6902747296  MEOH      68              0.0000000000
     14518       760  MEOH      LP1B           19.3866963623       -1.5471604228        7.7734205369  MEOH      68              0.0000000000
     14519       761  MEOH      C1             -8.5411974225       -0.6171084661        6.4423617780  MEOH      69              0.0000000000
     14520       761  MEOH      DC1            -8.5262073535       -0.6128757560        6.4399029528  MEOH      69              0.0000000000
     14521       761  MEOH      O1             -7.7328784318       -1.7906029085        6.3121985476  MEOH      69              0.0000000000
     14522       761  MEOH      DO1            -7.7097744401       -1.7951420299        6.3164797922  MEOH      69              0.0000000000
     14523       761  MEOH      HO1            -7.3759703042       -1.9510675936        7.1997613195  MEOH      69              0.0000000000
     14524       761  MEOH      HO2            -8.3226568996       -2.4594316702        5.9304532838  MEOH      69              0.0000000000
     14525       761  MEOH      H1A            -9.1742926614       -0.4878709945        5.5385868639  MEOH      69              0.0000000000
     14526       761  MEOH      H1B            -7.8968064546        0.2792042356        6.5676806560  MEOH      69              0.0000000000
     14527       761  MEOH      H1C            -9.2334038992       -0.7170504879        7.3056014826  MEOH      69              0.0000000000
     14528       761  MEOH      LP1A           -7.9272735937       -2.0765099332        6.3666750957  MEOH      69              0.0000000000
     14529       761  MEOH      LP1B           -7.4058620548       -1.7016158924        6.2247823014  MEOH      69              0.0000000000
     14530       762  MEOH      C1              0.8161857016      -10.7561634032       25.8020986231  MEOH      70              0.0000000000
     14531       762  MEOH      DC1             0.8237441148      -10.7627452714       25.7959113096  MEOH      70              0.0000000000
     14532       762  MEOH      O1              1.4705683140      -11.5649271893       26.7822502175  MEOH      70              0.0000000000
     14533       762  MEOH      DO1             1.4737009895      -11.5741166867       26.7700606862  MEOH      70              0.0000000000
     14534       762  MEOH      HO1             0.8442338579      -12.2308450069       27.1065318995  MEOH      70              0.0000000000
     14535       762  MEOH      HO2             2.3424293994      -11.7933932555       26.4236954714  MEOH      70              0.0000000000
     14536       762  MEOH      H1A             1.3869503249       -9.8142517679       25.6559780656  MEOH      70              0.0000000000
     14537       762  MEOH      H1B            -0.2108632952      -10.5026551609       26.1415466013  MEOH      70              0.0000000000
     14538       762  MEOH      H1C             0.7468467653      -11.2959069838       24.8334965484  MEOH      70              0.0000000000
     14539       762  MEOH      LP1A            1.6279976163      -11.8365695990       26.6275685571  MEOH      70              0.0000000000
     14540       762  MEOH      LP1B            1.4323659045      -11.4226376955       27.0997313600  MEOH      70              0.0000000000
     14541       763  MEOH      C1             35.8553507464      -18.4161563313      -35.4343284428  MEOH      71              0.0000000000
     14542       763  MEOH      DC1            35.8554526119      -18.4158549475      -35.4369735293  MEOH      71              0.0000000000
     14543       763  MEOH      O1             35.3321098995      -18.6950890913      -34.1339365820  MEOH      71              0.0000000000
     14544       763  MEOH      DO1            35.3355646717      -18.6968930403      -34.1364161922  MEOH      71              0.0000000000
     14545       763  MEOH      HO1            34.5183206145      -18.1779967469      -34.0278116228  MEOH      71              0.0000000000
     14546       763  MEOH      HO2            35.3134664398      -19.6617631906      -34.0558750158  MEOH      71              0.0000000000
     14547       763  MEOH      H1A            36.8482117475      -18.9015346377      -35.5481525760  MEOH      71              0.0000000000
     14548       763  MEOH      H1B            35.9709719152      -17.3194279063      -35.5690114322  MEOH      71              0.0000000000
     14549       763  MEOH      H1C            35.1703167717      -18.8150037129      -36.2127693332  MEOH      71              0.0000000000
     14550       763  MEOH      LP1A           35.1179513747      -18.9715715883      -34.1478489901  MEOH      71              0.0000000000
     14551       763  MEOH      LP1B           35.4673874115      -18.4724648331      -33.9001879255  MEOH      71              0.0000000000
     14552       764  MEOH      C1             23.3245468199      -10.3418343640       34.5933459424  MEOH      72              0.0000000000
     14553       764  MEOH      DC1            23.3549862723      -10.3892718177       34.5791132124  MEOH      72              0.0000000000
     14554       764  MEOH      O1             22.2315465040       -9.4539680186       34.6101460200  MEOH      72              0.0000000000
     14555       764  MEOH      DO1            22.2584381928       -9.4945222764       34.5965295441  MEOH      72              0.0000000000
     14556       764  MEOH      HO1            22.5027476819       -8.5316673180       34.4808736722  MEOH      72              0.0000000000
     14557       764  MEOH      HO2            21.5075941880       -9.8575463926       34.1062437079  MEOH      72              0.0000000000
     14558       764  MEOH      H1A            23.0029587203      -11.2921776951       35.0705771727  MEOH      72              0.0000000000
     14559       764  MEOH      H1B            24.1708621185       -9.9017831439       35.1629303004  MEOH      72              0.0000000000
     14560       764  MEOH      H1C            23.5919341715      -10.5060342076       33.5275770106  MEOH      72              0.0000000000
     14561       764  MEOH      LP1A           22.1011514028       -9.4185092262       34.2872841429  MEOH      72              0.0000000000
     14562       764  MEOH      LP1B           22.1689843656       -9.3473087441       34.9375750627  MEOH      72              0.0000000000
     14563       765  MEOH      C1             25.6484695954        9.2123142309        0.4424552690  MEOH      73              0.0000000000
     14564       765  MEOH      DC1            25.6410093228        9.2004914025        0.4520231572  MEOH      73              0.0000000000
     14565       765  MEOH      O1             25.2094104474        8.4730526191        1.5786742175  MEOH      73              0.0000000000
     14566       765  MEOH      DO1            25.2015771465        8.4583085557        1.5762715456  MEOH      73              0.0000000000
     14567       765  MEOH      HO1            24.3962319230        8.8764501165        1.9205969390  MEOH      73              0.0000000000
     14568       765  MEOH      HO2            25.2903857652        7.5305131399        1.3642859528  MEOH      73              0.0000000000
     14569       765  MEOH      H1A            26.7073808990        8.9650956664        0.2146157808  MEOH      73              0.0000000000
     14570       765  MEOH      H1B            25.5785130916       10.3014195111        0.6504859814  MEOH      73              0.0000000000
     14571       765  MEOH      H1C            25.0261957751        8.9536522439       -0.4408285299  MEOH      73              0.0000000000
     14572       765  MEOH      LP1A           24.9981885891        8.2128198664        1.4778563570  MEOH      73              0.0000000000
     14573       765  MEOH      LP1B           25.3558210537        8.6019883224        1.8692590051  MEOH      73              0.0000000000
     14574       766  MEOH      C1             25.6151478932        3.5175970688      -31.4619510350  MEOH      74              0.0000000000
     14575       766  MEOH      DC1            25.6036295067        3.5111514270      -31.4377993922  MEOH      74              0.0000000000
     14576       766  MEOH      O1             26.3585978649        4.2818543181      -32.4046335825  MEOH      74              0.0000000000
     14577       766  MEOH      DO1            26.3482204061        4.2726029302      -32.3965285894  MEOH      74              0.0000000000
     14578       766  MEOH      HO1            26.6261334970        3.6914173309      -33.1262351691  MEOH      74              0.0000000000
     14579       766  MEOH      HO2            25.8207070152        5.0684520108      -32.5858447968  MEOH      74              0.0000000000
     14580       766  MEOH      H1A            25.3620074860        4.1806807755      -30.6072224619  MEOH      74              0.0000000000
     14581       766  MEOH      H1B            26.2259678867        2.6620146952      -31.1025087728  MEOH      74              0.0000000000
     14582       766  MEOH      H1C            24.6769844784        3.1393241449      -31.9213854723  MEOH      74              0.0000000000
     14583       766  MEOH      LP1A           26.1428169915        4.4220410400      -32.6418809169  MEOH      74              0.0000000000
     14584       766  MEOH      LP1B           26.6980697229        4.2795936642      -32.3194646499  MEOH      74              0.0000000000
     14585       767  MEOH      C1              0.0131982996       -6.5740150674       31.6343644792  MEOH      75              0.0000000000
     14586       767  MEOH      DC1             0.0021663018       -6.5730416429       31.6337211615  MEOH      75              0.0000000000
     14587       767  MEOH      O1             -1.3202943438       -7.0564908126       31.4539690606  MEOH      75              0.0000000000
     14588       767  MEOH      DO1            -1.3288937912       -7.0556386233       31.4513823154  MEOH      75              0.0000000000
     14589       767  MEOH      HO1            -1.4494969838       -7.7806248771       32.0862953492  MEOH      75              0.0000000000
     14590       767  MEOH      HO2            -1.8978613105       -6.2771955768       31.4500531562  MEOH      75              0.0000000000
     14591       767  MEOH      H1A             0.2576256975       -5.8548039023       30.8236169555  MEOH      75              0.0000000000
     14592       767  MEOH      H1B             0.7405256267       -7.4121994905       31.5818018058  MEOH      75              0.0000000000
     14593       767  MEOH      H1C             0.1075077051       -6.0524206684       32.6107691184  MEOH      75              0.0000000000
     14594       767  MEOH      LP1A           -1.5409126996       -6.8780135351       31.6588431744  MEOH      75              0.0000000000
     14595       767  MEOH      LP1B           -1.3247010586       -7.3079978138       31.2106075821  MEOH      75              0.0000000000
     14596       768  MEOH      C1            -35.3799870716       35.0377626917       -8.2275154617  MEOH      76              0.0000000000
     14597       768  MEOH      DC1           -35.3791452634       35.0414095787       -8.2266404148  MEOH      76              0.0000000000
     14598       768  MEOH      O1            -35.5691978857       36.0640304212       -7.2492470396  MEOH      76              0.0000000000
     14599       768  MEOH      DO1           -35.5674480517       36.0684314821       -7.2425997771  MEOH      76              0.0000000000
     14600       768  MEOH      HO1           -35.5803666740       36.9056037522       -7.7314602573  MEOH      76              0.0000000000
     14601       768  MEOH      HO2           -36.3467260073       35.7929581806       -6.7365386816  MEOH      76              0.0000000000
     14602       768  MEOH      H1A           -35.3329355442       34.0467808248       -7.7274533718  MEOH      76              0.0000000000
     14603       768  MEOH      H1B           -34.4293240477       35.2069305442       -8.7770089126  MEOH      76              0.0000000000
     14604       768  MEOH      H1C           -36.2257265582       35.0420960291       -8.9479507079  MEOH      76              0.0000000000
     14605       768  MEOH      LP1A          -35.9110186792       36.1206888059       -7.1997660078  MEOH      76              0.0000000000
     14606       768  MEOH      LP1B          -35.2593583849       36.1711965728       -7.1267117397  MEOH      76              0.0000000000
     14607       769  MEOH      C1            -30.1374504746       -5.9665827793       11.1966453627  MEOH      77              0.0000000000
     14608       769  MEOH      DC1           -30.1433501528       -5.9669713625       11.1888339642  MEOH      77              0.0000000000
     14609       769  MEOH      O1            -30.1060552699       -6.3141050654        9.8112493984  MEOH      77              0.0000000000
     14610       769  MEOH      DO1           -30.1091621152       -6.3152590190        9.8059668467  MEOH      77              0.0000000000
     14611       769  MEOH      HO1           -29.1844728972       -6.5340433622        9.6033718480  MEOH      77              0.0000000000
     14612       769  MEOH      HO2           -30.8094000465       -6.9690707151        9.6800010691  MEOH      77              0.0000000000
     14613       769  MEOH      H1A           -31.1630142751       -5.6484071885       11.4817842493  MEOH      77              0.0000000000
     14614       769  MEOH      H1B           -29.4312928128       -5.1334708108       11.4005737957  MEOH      77              0.0000000000
     14615       769  MEOH      H1C           -29.8435141805       -6.8454373155       11.8094562304  MEOH      77              0.0000000000
     14616       769  MEOH      LP1A          -30.1666020484       -6.6566267342        9.7723521741  MEOH      77              0.0000000000
     14617       769  MEOH      LP1B          -30.0515473961       -6.0279328861        9.6172535853  MEOH      77              0.0000000000
     14618       770  MEOH      C1             -8.9285494174      -22.6935230112       24.6233406669  MEOH      78              0.0000000000
     14619       770  MEOH      DC1            -8.9151677676      -22.6908133801       24.6159711759  MEOH      78              0.0000000000
     14620       770  MEOH      O1             -9.0032291659      -21.5445885463       25.4720238195  MEOH      78              0.0000000000
     14621       770  MEOH      DO1            -8.9816411972      -21.5438973191       25.4730239619  MEOH      78              0.0000000000
     14622       770  MEOH      HO1            -8.5758956069      -20.8093651488       25.0054055761  MEOH      78              0.0000000000
     14623       770  MEOH      HO2            -9.9446141045      -21.4531254159       25.6872652994  MEOH      78              0.0000000000
     14624       770  MEOH      H1A            -9.5199448565      -23.5229467921       25.0667689329  MEOH      78              0.0000000000
     14625       770  MEOH      H1B            -7.8745293662      -23.0255388325       24.5087621960  MEOH      78              0.0000000000
     14626       770  MEOH      H1C            -9.3697917202      -22.4562865129       23.6317030940  MEOH      78              0.0000000000
     14627       770  MEOH      LP1A           -9.3004969941      -21.3700806457       25.4113704525  MEOH      78              0.0000000000
     14628       770  MEOH      LP1B           -8.7239525551      -21.5330040027       25.6826665811  MEOH      78              0.0000000000
     14629       771  MEOH      C1             -9.3459319849      -34.3037990508       -4.4594690277  MEOH      79              0.0000000000
     14630       771  MEOH      DC1            -9.3469669635      -34.3058815767       -4.4565015792  MEOH      79              0.0000000000
     14631       771  MEOH      O1            -10.3945380615      -34.6711164870       -5.3555171087  MEOH      79              0.0000000000
     14632       771  MEOH      DO1           -10.3929088850      -34.6668418266       -5.3593704381  MEOH      79              0.0000000000
     14633       771  MEOH      HO1           -11.2333211458      -34.5102258616       -4.8956724130  MEOH      79              0.0000000000
     14634       771  MEOH      HO2           -10.1931417472      -34.2384665651       -6.2000013128  MEOH      79              0.0000000000
     14635       771  MEOH      H1A            -8.3774312999      -34.6487269823       -4.8806010095  MEOH      79              0.0000000000
     14636       771  MEOH      H1B            -9.5038654526      -34.7626863091       -3.4600689557  MEOH      79              0.0000000000
     14637       771  MEOH      H1C            -9.2981397549      -33.1999033826       -4.3434894668  MEOH      79              0.0000000000
     14638       771  MEOH      LP1A          -10.4847371367      -34.3966942591       -5.5531444542  MEOH      79              0.0000000000
     14639       771  MEOH      LP1B          -10.4724363788      -35.0100538185       -5.3161047063  MEOH      79              0.0000000000
     14640       772  MEOH      C1              7.5417712930       31.8800643574      -20.1875914654  MEOH      80              0.0000000000
     14641       772  MEOH      DC1             7.5370415316       31.8800746871      -20.1994872494  MEOH      80              0.0000000000
     14642       772  MEOH      O1              8.2417955158       32.0217965422      -21.4241684083  MEOH      80              0.0000000000
     14643       772  MEOH      DO1             8.2410763549       32.0227785382      -21.4283177260  MEOH      80              0.0000000000
     14644       772  MEOH      HO1             7.5914849690       32.2230058662      -22.1151901167  MEOH      80              0.0000000000
     14645       772  MEOH      HO2             8.9694154237       32.6368250286      -21.2419344090  MEOH      80              0.0000000000
     14646       772  MEOH      H1A             8.2425730064       31.5532496348      -19.3898508451  MEOH      80              0.0000000000
     14647       772  MEOH      H1B             6.7380486719       31.1211431241      -20.2988996463  MEOH      80              0.0000000000
     14648       772  MEOH      H1C             7.0862489897       32.8448598171      -19.8777686901  MEOH      80              0.0000000000
     14649       772  MEOH      LP1A            8.3430938178       32.3540703385      -21.4669793679  MEOH      80              0.0000000000
     14650       772  MEOH      LP1B            8.2677786340       31.7111510450      -21.5833043648  MEOH      80              0.0000000000
     14651       773  MEOH      C1             27.7653309178      -22.2069672778       30.5898653517  MEOH      81              0.0000000000
     14652       773  MEOH      DC1            27.7555122052      -22.1995912629       30.6059969976  MEOH      81              0.0000000000
     14653       773  MEOH      O1             28.7799628554      -21.9021079898       29.6337446233  MEOH      81              0.0000000000
     14654       773  MEOH      DO1            28.7699860289      -21.8949941682       29.6477611428  MEOH      81              0.0000000000
     14655       773  MEOH      HO1            29.5462785557      -21.5146858820       30.0849256934  MEOH      81              0.0000000000
     14656       773  MEOH      HO2            28.9040184806      -22.7182079266       29.1243419382  MEOH      81              0.0000000000
     14657       773  MEOH      H1A            26.9299563153      -22.7125237063       30.0598814161  MEOH      81              0.0000000000
     14658       773  MEOH      H1B            27.3874501667      -21.2748066838       31.0616743863  MEOH      81              0.0000000000
     14659       773  MEOH      H1C            28.1566113910      -22.9011819730       31.3640013538  MEOH      81              0.0000000000
     14660       773  MEOH      LP1A           28.9898007022      -22.1787217253       29.5895527759  MEOH      81              0.0000000000
     14661       773  MEOH      LP1B           28.7336223855      -21.5783438418       29.5091278614  MEOH      81              0.0000000000
     14662       774  MEOH      C1            -14.3352853600      -23.6784400586        5.5181997563  MEOH      82              0.0000000000
     14663       774  MEOH      DC1           -14.3340197621      -23.6770000112        5.5118258969  MEOH      82              0.0000000000
     14664       774  MEOH      O1            -15.1922687594      -24.7155864600        6.0087900120  MEOH      82              0.0000000000
     14665       774  MEOH      DO1           -15.1879584718      -24.7171649430        6.0033741543  MEOH      82              0.0000000000
     14666       774  MEOH      HO1           -15.9719886401      -24.7862838885        5.4361306183  MEOH      82              0.0000000000
     14667       774  MEOH      HO2           -14.6281656347      -25.4783608240        6.2109358386  MEOH      82              0.0000000000
     14668       774  MEOH      H1A           -13.5740375535      -23.4372074997        6.2906177974  MEOH      82              0.0000000000
     14669       774  MEOH      H1B           -14.9251635392      -22.7620086322        5.3025190328  MEOH      82              0.0000000000
     14670       774  MEOH      H1C           -13.8131505025      -24.0115508246        4.5958476493  MEOH      82              0.0000000000
     14671       774  MEOH      LP1A          -15.1024848564      -25.0224311381        5.8663639108  MEOH      82              0.0000000000
     14672       774  MEOH      LP1B          -15.4179585517      -24.5841698241        6.2418002810  MEOH      82              0.0000000000
     14673       775  MEOH      C1             10.8920910416       -2.7795816566      -15.8076618694  MEOH      83              0.0000000000
     14674       775  MEOH      DC1            10.8963804513       -2.7853542202      -15.7879446349  MEOH      83              0.0000000000
     14675       775  MEOH      O1             10.3792047428       -3.0783280340      -14.5035169280  MEOH      83              0.0000000000
     14676       775  MEOH      DO1            10.3829242860       -3.0953124454      -14.4958397410  MEOH      83              0.0000000000
     14677       775  MEOH      HO1            11.1247891156       -3.3257080360      -13.9344764394  MEOH      83              0.0000000000
     14678       775  MEOH      HO2             9.8393862060       -2.3111550272      -14.2566535533  MEOH      83              0.0000000000
     14679       775  MEOH      H1A            10.0654731000       -2.4594734020      -16.4774039725  MEOH      83              0.0000000000
     14680       775  MEOH      H1B            11.3714929069       -3.6755604493      -16.2567908648  MEOH      83              0.0000000000
     14681       775  MEOH      H1C            11.6448590651       -1.9641609664      -15.7552175899  MEOH      83              0.0000000000
     14682       775  MEOH      LP1A           10.3690444820       -2.7873173013      -14.3093275294  MEOH      83              0.0000000000
     14683       775  MEOH      LP1B           10.2930310202       -3.4169601052      -14.4834567712  MEOH      83              0.0000000000
     14684       776  MEOH      C1             -2.4840958741       -4.0602071422       -1.6965985380  MEOH      84              0.0000000000
     14685       776  MEOH      DC1            -2.4852023939       -4.0814856796       -1.6891330071  MEOH      84              0.0000000000
     14686       776  MEOH      O1             -3.1667393068       -2.9189668753       -1.1791737952  MEOH      84              0.0000000000
     14687       776  MEOH      DO1            -3.1738005194       -2.9341669463       -1.1745943762  MEOH      84              0.0000000000
     14688       776  MEOH      HO1            -3.0728878256       -2.2118304964       -1.8364789319  MEOH      84              0.0000000000
     14689       776  MEOH      HO2            -4.0406514066       -3.2283593666       -0.8937724495  MEOH      84              0.0000000000
     14690       776  MEOH      H1A            -2.4180582645       -4.8376733580       -0.9057089635  MEOH      84              0.0000000000
     14691       776  MEOH      H1B            -1.4634110515       -3.7647733729       -2.0210093598  MEOH      84              0.0000000000
     14692       776  MEOH      H1C            -3.0386543171       -4.4701995836       -2.5676278896  MEOH      84              0.0000000000
     14693       776  MEOH      LP1A           -3.5025672436       -2.9255725204       -1.2775402646  MEOH      84              0.0000000000
     14694       776  MEOH      LP1B           -2.9482779351       -2.7268368853       -0.9845955435  MEOH      84              0.0000000000
     14695       777  MEOH      C1             -9.2429350200      -36.3916519440      -16.1912001394  MEOH      85              0.0000000000
     14696       777  MEOH      DC1            -9.2365690857      -36.3961506673      -16.1891924793  MEOH      85              0.0000000000
     14697       777  MEOH      O1             -8.0145904546      -36.2188781500      -16.8941943064  MEOH      85              0.0000000000
     14698       777  MEOH      DO1            -8.0108069659      -36.2265892662      -16.8998056506  MEOH      85              0.0000000000
     14699       777  MEOH      HO1            -7.3867163948      -35.8238017284      -16.2692232778  MEOH      85              0.0000000000
     14700       777  MEOH      HO2            -7.8265686866      -37.0829630395      -17.2928233551  MEOH      85              0.0000000000
     14701       777  MEOH      H1A           -10.0188415707      -36.7945330256      -16.8767487221  MEOH      85              0.0000000000
     14702       777  MEOH      H1B            -9.5567313793      -35.4023378148      -15.7948285982  MEOH      85              0.0000000000
     14703       777  MEOH      H1C            -9.1189340838      -37.0891006339      -15.3353321035  MEOH      85              0.0000000000
     14704       777  MEOH      LP1A           -7.8180374572      -36.5069328109      -16.8643374558  MEOH      85              0.0000000000
     14705       777  MEOH      LP1B           -8.0096574934      -35.9062760663      -17.0515334406  MEOH      85              0.0000000000
     14706       778  MEOH      C1             20.4844882231       -9.3467002933       21.7177080963  MEOH      86              0.0000000000
     14707       778  MEOH      DC1            20.4717792251       -9.3611585537       21.7205924089  MEOH      86              0.0000000000
     14708       778  MEOH      O1             19.4085079536       -8.4076100710       21.6799905783  MEOH      86              0.0000000000
     14709       778  MEOH      DO1            19.4023479227       -8.4132221358       21.6753203594  MEOH      86              0.0000000000
     14710       778  MEOH      HO1            19.7586678425       -7.6007889838       21.2709333856  MEOH      86              0.0000000000
     14711       778  MEOH      HO2            18.6483694067       -8.8756861691       21.3005249593  MEOH      86              0.0000000000
     14712       778  MEOH      H1A            20.1866275850      -10.2365028101       22.3125622984  MEOH      86              0.0000000000
     14713       778  MEOH      H1B            21.3795672652       -8.8789869805       22.1807402395  MEOH      86              0.0000000000
     14714       778  MEOH      H1C            20.7472436168       -9.6596934894       20.6845982940  MEOH      86              0.0000000000
     14715       778  MEOH      LP1A           19.2273059146       -8.4450460032       21.3828973740  MEOH      86              0.0000000000
     14716       778  MEOH      LP1B           19.4024913944       -8.2205136900       21.9757248259  MEOH      86              0.0000000000
     14717       779  MEOH      C1              7.4163809449      -21.6660572140       33.2853870867  MEOH      87              0.0000000000
     14718       779  MEOH      DC1             7.4191632803      -21.6779982117       33.2852468304  MEOH      87              0.0000000000
     14719       779  MEOH      O1              6.0954093864      -21.7341297049       32.7494263836  MEOH      87              0.0000000000
     14720       779  MEOH      DO1             6.0954472885      -21.7430064339       32.7329848436  MEOH      87              0.0000000000
     14721       779  MEOH      HO1             5.7112460666      -20.8524780535       32.8759527085  MEOH      87              0.0000000000
     14722       779  MEOH      HO2             6.1732842732      -22.1379325574       31.8709169879  MEOH      87              0.0000000000
     14723       779  MEOH      H1A             7.8453439577      -22.6872919422       33.3713601288  MEOH      87              0.0000000000
     14724       779  MEOH      H1B             7.3791839053      -21.2044354421       34.2952597123  MEOH      87              0.0000000000
     14725       779  MEOH      H1C             8.0617440188      -21.0474121088       32.6257616339  MEOH      87              0.0000000000
     14726       779  MEOH      LP1A            6.1000518298      -21.6531997599       32.4089432097  MEOH      87              0.0000000000
     14727       779  MEOH      LP1B            5.8708680110      -21.8374854388       32.9972141214  MEOH      87              0.0000000000
     14728       780  MEOH      C1            -17.6157099894        9.3163370177      -24.3446217749  MEOH      88              0.0000000000
     14729       780  MEOH      DC1           -17.6359711688        9.3189184993      -24.3296751456  MEOH      88              0.0000000000
     14730       780  MEOH      O1            -17.3694581641        8.4249030966      -25.4322657561  MEOH      88              0.0000000000
     14731       780  MEOH      DO1           -17.3827534686        8.4255443606      -25.4168552349  MEOH      88              0.0000000000
     14732       780  MEOH      HO1           -18.0891492420        7.7800161974      -25.5163231225  MEOH      88              0.0000000000
     14733       780  MEOH      HO2           -17.1337017963        8.9885615571      -26.1856634433  MEOH      88              0.0000000000
     14734       780  MEOH      H1A           -16.7431471023        9.9930581049      -24.2221326745  MEOH      88              0.0000000000
     14735       780  MEOH      H1B           -17.7504146366        8.7426444682      -23.4027871199  MEOH      88              0.0000000000
     14736       780  MEOH      H1C           -18.5055416901        9.9429350666      -24.5679946240  MEOH      88              0.0000000000
     14737       780  MEOH      LP1A          -17.5028920947        8.5568146115      -25.7277225862  MEOH      88              0.0000000000
     14738       780  MEOH      LP1B          -17.1848774548        8.1489548571      -25.3214391760  MEOH      88              0.0000000000
     14739       781  MEOH      C1            -27.9633795818      -15.7445241789      -28.1364668864  MEOH      89              0.0000000000
     14740       781  MEOH      DC1           -27.9706662456      -15.7473276870      -28.1448607761  MEOH      89              0.0000000000
     14741       781  MEOH      O1            -28.7036254181      -14.8121568961      -28.9290863846  MEOH      89              0.0000000000
     14742       781  MEOH      DO1           -28.7144484700      -14.8117892060      -28.9287689468  MEOH      89              0.0000000000
     14743       781  MEOH      HO1           -28.0881288061      -14.1066387268      -29.1826766740  MEOH      89              0.0000000000
     14744       781  MEOH      HO2           -29.1538935841      -15.3384280156      -29.6082014613  MEOH      89              0.0000000000
     14745       781  MEOH      H1A           -28.6468561822      -16.5167494644      -27.7231282298  MEOH      89              0.0000000000
     14746       781  MEOH      H1B           -27.4723719526      -15.2142490283      -27.2926418013  MEOH      89              0.0000000000
     14747       781  MEOH      H1C           -27.1893521711      -16.2468270720      -28.7552514786  MEOH      89              0.0000000000
     14748       781  MEOH      LP1A          -28.6903328961      -14.9047046591      -29.2663670102  MEOH      89              0.0000000000
     14749       781  MEOH      LP1B          -28.8502506593      -14.5699868736      -28.7232837634  MEOH      89              0.0000000000
     14750       782  MEOH      C1             25.2300461094        5.1983349611       -7.9092674647  MEOH      90              0.0000000000
     14751       782  MEOH      DC1            25.2170341009        5.2041722975       -7.9078646641  MEOH      90              0.0000000000
     14752       782  MEOH      O1             25.3485684824        5.9422885682       -9.1243580914  MEOH      90              0.0000000000
     14753       782  MEOH      DO1            25.3398740045        5.9522285895       -9.1268248061  MEOH      90              0.0000000000
     14754       782  MEOH      HO1            25.4481933614        6.8732155139       -8.8706852572  MEOH      90              0.0000000000
     14755       782  MEOH      HO2            26.0631427161        5.5120230868       -9.6194896700  MEOH      90              0.0000000000
     14756       782  MEOH      H1A            25.1682636013        4.1130702877       -8.1388420969  MEOH      90              0.0000000000
     14757       782  MEOH      H1B            24.3096527676        5.5095535434       -7.3704353100  MEOH      90              0.0000000000
     14758       782  MEOH      H1C            26.1122630250        5.3792463051       -7.2586635918  MEOH      90              0.0000000000
     14759       782  MEOH      LP1A           25.6846056365        5.9623298437       -9.2201567256  MEOH      90              0.0000000000
     14760       782  MEOH      LP1B           25.0314325540        6.0371145687       -9.2380807037  MEOH      90              0.0000000000
     14761       783  MEOH      C1             10.5753606174       22.8708927728       10.7667934329  MEOH      91              0.0000000000
     14762       783  MEOH      DC1            10.5930266812       22.8708110286       10.7699238256  MEOH      91              0.0000000000
     14763       783  MEOH      O1              9.4618693534       23.7556508073       10.6327213108  MEOH      91              0.0000000000
     14764       783  MEOH      DO1             9.4824531631       23.7658508096       10.6463656057  MEOH      91              0.0000000000
     14765       783  MEOH      HO1             8.6790026256       23.3489967375       11.0360228779  MEOH      91              0.0000000000
     14766       783  MEOH      HO2             9.7695638695       24.6490293282       10.8520359351  MEOH      91              0.0000000000
     14767       783  MEOH      H1A            11.4025104574       23.2048853259       10.1045298017  MEOH      91              0.0000000000
     14768       783  MEOH      H1B            10.2745925511       21.8449993625       10.4644653313  MEOH      91              0.0000000000
     14769       783  MEOH      H1C            10.9290672179       22.8684110936       11.8199821545  MEOH      91              0.0000000000
     14770       783  MEOH      LP1A            9.4479140668       23.9728939569       10.9067845588  MEOH      91              0.0000000000
     14771       783  MEOH      LP1B            9.2958903605       23.6942790712       10.3307536239  MEOH      91              0.0000000000
     14772       784  MEOH      C1            -32.3681878797       26.8075460464      -13.7662891338  MEOH      92              0.0000000000
     14773       784  MEOH      DC1           -32.3682924437       26.8100842859      -13.7559085382  MEOH      92              0.0000000000
     14774       784  MEOH      O1            -32.6577226933       27.7487598718      -12.7412296322  MEOH      92              0.0000000000
     14775       784  MEOH      DO1           -32.6684773036       27.7495799482      -12.7267218316  MEOH      92              0.0000000000
     14776       784  MEOH      HO1           -31.8031739344       28.1413532353      -12.5034968590  MEOH      92              0.0000000000
     14777       784  MEOH      HO2           -33.3568702011       28.3074268015      -13.1153740214  MEOH      92              0.0000000000
     14778       784  MEOH      H1A           -33.2969803473       26.2921926165      -14.0919828463  MEOH      92              0.0000000000
     14779       784  MEOH      H1B           -31.6395140026       26.0578741369      -13.3903271534  MEOH      92              0.0000000000
     14780       784  MEOH      H1C           -31.9349276204       27.3279228134      -14.6470924993  MEOH      92              0.0000000000
     14781       784  MEOH      LP1A          -32.7318703008       28.0603706344      -12.8823000576  MEOH      92              0.0000000000
     14782       784  MEOH      LP1B          -32.6434748388       27.5929521775      -12.4281466384  MEOH      92              0.0000000000
     14783       785  MEOH      C1            -12.9162510531       -6.3868909135       -5.5426211494  MEOH      93              0.0000000000
     14784       785  MEOH      DC1           -12.9465821183       -6.4190585404       -5.5311738959  MEOH      93              0.0000000000
     14785       785  MEOH      O1            -12.4811257823       -5.1647939671       -6.1309619646  MEOH      93              0.0000000000
     14786       785  MEOH      DO1           -12.4968787410       -5.1892365620       -6.1212806645  MEOH      93              0.0000000000
     14787       785  MEOH      HO1           -12.8884434073       -4.4146570566       -5.6702158655  MEOH      93              0.0000000000
     14788       785  MEOH      HO2           -11.5128039152       -5.2214573197       -6.1374447568  MEOH      93              0.0000000000
     14789       785  MEOH      H1A           -12.4685475779       -7.2393362575       -6.0968950291  MEOH      93              0.0000000000
     14790       785  MEOH      H1B           -14.0249090802       -6.4550578297       -5.5661084352  MEOH      93              0.0000000000
     14791       785  MEOH      H1C           -12.5312441804       -6.4249320956       -4.5011589191  MEOH      93              0.0000000000
     14792       785  MEOH      LP1A          -12.1872671354       -5.0551277891       -5.9756544469  MEOH      93              0.0000000000
     14793       785  MEOH      LP1B          -12.6954620115       -5.0749409243       -6.3926610505  MEOH      93              0.0000000000
     14794       786  MEOH      C1              1.7555060248        6.5805710134       32.6693300483  MEOH      94              0.0000000000
     14795       786  MEOH      DC1             1.7653241905        6.5976503054       32.6533293006  MEOH      94              0.0000000000
     14796       786  MEOH      O1              0.3510402654        6.7974390073       32.8652033374  MEOH      94              0.0000000000
     14797       786  MEOH      DO1             0.3578645100        6.8054399546       32.8436480747  MEOH      94              0.0000000000
     14798       786  MEOH      HO1             0.1294519217        6.3835883598       33.7140415126  MEOH      94              0.0000000000
     14799       786  MEOH      HO2             0.1907529512        7.7452964194       32.7356876865  MEOH      94              0.0000000000
     14800       786  MEOH      H1A             2.0239413074        6.7427844209       31.6035203513  MEOH      94              0.0000000000
     14801       786  MEOH      H1B             2.0157931631        5.5463019802       32.9805521113  MEOH      94              0.0000000000
     14802       786  MEOH      H1C             2.3430761425        7.2976574951       33.2815957885  MEOH      94              0.0000000000
     14803       786  MEOH      LP1A            0.2988220514        7.1010080890       33.0313932010  MEOH      94              0.0000000000
     14804       786  MEOH      LP1B            0.1683343509        6.5356668360       32.7216976610  MEOH      94              0.0000000000
     14805       787  MEOH      C1            -27.9707762377       -8.5103289176        1.8155344338  MEOH      95              0.0000000000
     14806       787  MEOH      DC1           -27.9685437500       -8.5158761732        1.8211877435  MEOH      95              0.0000000000
     14807       787  MEOH      O1            -29.1385174503       -9.0183959282        2.4423271001  MEOH      95              0.0000000000
     14808       787  MEOH      DO1           -29.1368787175       -9.0211871543        2.4459968910  MEOH      95              0.0000000000
     14809       787  MEOH      HO1           -29.8144492627       -9.1093660722        1.7525875704  MEOH      95              0.0000000000
     14810       787  MEOH      HO2           -28.8522459002       -9.7780867452        2.9731928668  MEOH      95              0.0000000000
     14811       787  MEOH      H1A           -27.1768335979       -8.3151299591        2.5677800396  MEOH      95              0.0000000000
     14812       787  MEOH      H1B           -28.2029528133       -7.5604500085        1.2881398019  MEOH      95              0.0000000000
     14813       787  MEOH      H1C           -27.5796157982       -9.2645876418        1.0997074378  MEOH      95              0.0000000000
     14814       787  MEOH      LP1A          -29.1324840339       -9.3683413475        2.4409849360  MEOH      95              0.0000000000
     14815       787  MEOH      LP1B          -29.3360470483       -8.7542818052        2.5594842082  MEOH      95              0.0000000000
     14816       788  MEOH      C1              4.4094751388      -10.0151522479      -13.5989520402  MEOH      96              0.0000000000
     14817       788  MEOH      DC1             4.4062264401      -10.0147948853      -13.5923543941  MEOH      96              0.0000000000
     14818       788  MEOH      O1              5.0558571025      -10.0024098999      -12.3316074603  MEOH      96              0.0000000000
     14819       788  MEOH      DO1             5.0519804083      -10.0099122551      -12.3170546230  MEOH      96              0.0000000000
     14820       788  MEOH      HO1             5.2155454249       -9.0687387344      -12.1226629834  MEOH      96              0.0000000000
     14821       788  MEOH      HO2             4.5218219413      -10.5697868770      -11.7538620029  MEOH      96              0.0000000000
     14822       788  MEOH      H1A             4.2988808991      -11.0604878724      -13.9586232044  MEOH      96              0.0000000000
     14823       788  MEOH      H1B             5.0194853470       -9.4546841645      -14.3392790461  MEOH      96              0.0000000000
     14824       788  MEOH      H1C             3.4068277344       -9.5446659743      -13.5114200486  MEOH      96              0.0000000000
     14825       788  MEOH      LP1A            4.8173757280       -9.9903834627      -12.0757129532  MEOH      96              0.0000000000
     14826       788  MEOH      LP1B            5.4026387218      -10.0237567446      -12.3738782629  MEOH      96              0.0000000000
     14827       789  MEOH      C1            -25.0757259702        0.8445696465      -16.9661563715  MEOH      97              0.0000000000
     14828       789  MEOH      DC1           -25.0856119000        0.8421082856      -16.9636200931  MEOH      97              0.0000000000
     14829       789  MEOH      O1            -26.2737318879        0.1883610128      -16.5556055453  MEOH      97              0.0000000000
     14830       789  MEOH      DO1           -26.2812950534        0.1902903129      -16.5498425151  MEOH      97              0.0000000000
     14831       789  MEOH      HO1           -26.1457474460       -0.7661893727      -16.6711630877  MEOH      97              0.0000000000
     14832       789  MEOH      HO2           -26.5255383420        0.5705947902      -15.7003916252  MEOH      97              0.0000000000
     14833       789  MEOH      H1A           -25.2426270464        1.9426874239      -16.9906997654  MEOH      97              0.0000000000
     14834       789  MEOH      H1B           -24.7831782797        0.4993651572      -17.9808340096  MEOH      97              0.0000000000
     14835       789  MEOH      H1C           -24.2578383241        0.6225686043      -16.2477579190  MEOH      97              0.0000000000
     14836       789  MEOH      LP1A          -26.2597963370        0.1169135125      -16.2132591489  MEOH      97              0.0000000000
     14837       789  MEOH      LP1B          -26.4934677985        0.1598260191      -16.8265333654  MEOH      97              0.0000000000
     14838       790  MEOH      C1             34.5951037336      -29.3978201742       -9.0376863389  MEOH      98              0.0000000000
     14839       790  MEOH      DC1            34.5888724813      -29.3697687956       -9.0255603862  MEOH      98              0.0000000000
     14840       790  MEOH      O1             34.5243470631      -28.2171809550       -8.2280922513  MEOH      98              0.0000000000
     14841       790  MEOH      DO1            34.5188470230      -28.1821734772       -8.2202019823  MEOH      98              0.0000000000
     14842       790  MEOH      HO1            35.4401591362      -27.8992382587       -8.1949156242  MEOH      98              0.0000000000
     14843       790  MEOH      HO2            33.8020531971      -27.6822019885       -8.5927689261  MEOH      98              0.0000000000
     14844       790  MEOH      H1A            33.6327471214      -29.9521748557       -9.0079939371  MEOH      98              0.0000000000
     14845       790  MEOH      H1B            35.3926645925      -30.0721535036       -8.6588826465  MEOH      98              0.0000000000
     14846       790  MEOH      H1C            34.8322863900      -29.1350201820      -10.0907777660  MEOH      98              0.0000000000
     14847       790  MEOH      LP1A           34.4595712821      -27.9379864552       -8.4289766198  MEOH      98              0.0000000000
     14848       790  MEOH      LP1B           34.5659894238      -28.3006784844       -7.8907584754  MEOH      98              0.0000000000
     14849       791  MEOH      C1             18.6053108811       -8.6197197556      -24.4946232160  MEOH      99              0.0000000000
     14850       791  MEOH      DC1            18.6026053433       -8.6111640340      -24.4893610070  MEOH      99              0.0000000000
     14851       791  MEOH      O1             18.4494909644       -7.3553345738      -25.1226901340  MEOH      99              0.0000000000
     14852       791  MEOH      DO1            18.4568512082       -7.3435640158      -25.1114047337  MEOH      99              0.0000000000
     14853       791  MEOH      HO1            17.9770970784       -6.7397953525      -24.5405771852  MEOH      99              0.0000000000
     14854       791  MEOH      HO2            19.2755898710       -7.1472343265      -25.5865380439  MEOH      99              0.0000000000
     14855       791  MEOH      H1A            18.7831154309       -9.3964230778      -25.2688573492  MEOH      99              0.0000000000
     14856       791  MEOH      H1B            17.6833103173       -8.8783766709      -23.9313004301  MEOH      99              0.0000000000
     14857       791  MEOH      H1C            19.4769550491       -8.5874429317      -23.8064984809  MEOH      99              0.0000000000
     14858       791  MEOH      LP1A           18.7254866891       -7.1519130052      -25.0523621498  MEOH      99              0.0000000000
     14859       791  MEOH      LP1B           18.1527306517       -7.3495636612      -25.3081625399  MEOH      99              0.0000000000
     14860       792  MEOH      C1             22.7911963040       29.7100711871        6.6522946238  MEOH      100             0.0000000000
     14861       792  MEOH      DC1            22.7958551461       29.7018910714        6.6572095941  MEOH      100             0.0000000000
     14862       792  MEOH      O1             22.5754313855       31.1035786070        6.4681659223  MEOH      100             0.0000000000
     14863       792  MEOH      DO1            22.5734706253       31.0952357464        6.4731653155  MEOH      100             0.0000000000
     14864       792  MEOH      HO1            23.2892482988       31.4339277267        5.9005085661  MEOH      100             0.0000000000
     14865       792  MEOH      HO2            21.6525127253       31.1879437192        6.1818030852  MEOH      100             0.0000000000
     14866       792  MEOH      H1A            22.0511033681       29.3169566237        7.3817083521  MEOH      100             0.0000000000
     14867       792  MEOH      H1B            23.8141791923       29.5393060956        7.0506240024  MEOH      100             0.0000000000
     14868       792  MEOH      H1C            22.6658099639       29.1687692154        5.6902179930  MEOH      100             0.0000000000
     14869       792  MEOH      LP1A           22.3702209134       31.1571784011        6.1897494641  MEOH      100             0.0000000000
     14870       792  MEOH      LP1B           22.7349237775       31.2839962796        6.7221573401  MEOH      100             0.0000000000
     14871       793  MEOH      C1             26.2503942286       36.7294150900      -33.4023938514  MEOH      101             0.0000000000
     14872       793  MEOH      DC1            26.2462850036       36.7144640269      -33.3986900439  MEOH      101             0.0000000000
     14873       793  MEOH      O1             25.8516868475       35.3774935379      -33.6289287975  MEOH      101             0.0000000000
     14874       793  MEOH      DO1            25.8449904536       35.3708423562      -33.6308672624  MEOH      101             0.0000000000
     14875       793  MEOH      HO1            26.6563688044       34.8390035531      -33.5704866510  MEOH      101             0.0000000000
     14876       793  MEOH      HO2            25.1029123172       35.2180453524      -33.0332669970  MEOH      101             0.0000000000
     14877       793  MEOH      H1A            25.3581355686       37.3885454332      -33.4635712574  MEOH      101             0.0000000000
     14878       793  MEOH      H1B            26.9854972307       37.0453393123      -34.1731963308  MEOH      101             0.0000000000
     14879       793  MEOH      H1C            26.7101402630       36.8461766183      -32.3977439965  MEOH      101             0.0000000000
     14880       793  MEOH      LP1A           25.7630229163       35.2264588622      -33.3258987098  MEOH      101             0.0000000000
     14881       793  MEOH      LP1B           25.8625997275       35.3052238400      -33.9712123055  MEOH      101             0.0000000000
     14882       794  MEOH      C1            -36.3339166458      -27.1077184230      -28.0148647463  MEOH      102             0.0000000000
     14883       794  MEOH      DC1           -36.3356037572      -27.1051258571      -28.0211485587  MEOH      102             0.0000000000
     14884       794  MEOH      O1            -36.7880380448      -27.5842989651      -26.7471211832  MEOH      102             0.0000000000
     14885       794  MEOH      DO1           -36.7863681471      -27.5855264411      -26.7537612285  MEOH      102             0.0000000000
     14886       794  MEOH      HO1           -37.4764619355      -28.2497169989      -26.9026569931  MEOH      102             0.0000000000
     14887       794  MEOH      HO2           -35.9891124126      -27.8163737496      -26.2483635982  MEOH      102             0.0000000000
     14888       794  MEOH      H1A           -35.6004165714      -26.2886842466      -27.8552349897  MEOH      102             0.0000000000
     14889       794  MEOH      H1B           -37.1917486549      -26.7209887374      -28.6055299597  MEOH      102             0.0000000000
     14890       794  MEOH      H1C           -35.8327579131      -27.9263959436      -28.5742644629  MEOH      102             0.0000000000
     14891       794  MEOH      LP1A          -36.5931525214      -27.8563874508      -26.6447127425  MEOH      102             0.0000000000
     14892       794  MEOH      LP1B          -37.0516582477      -27.3850552591      -26.6317680982  MEOH      102             0.0000000000
     14893       795  MEOH      C1             29.9611337623      -23.0024413821       34.4227614202  MEOH      103             0.0000000000
     14894       795  MEOH      DC1            29.9494523213      -22.9826936331       34.4232448047  MEOH      103             0.0000000000
     14895       795  MEOH      O1             29.5158797631      -22.3419382156       35.6052997881  MEOH      103             0.0000000000
     14896       795  MEOH      DO1            29.5133540345      -22.3244096776       35.6004566073  MEOH      103             0.0000000000
     14897       795  MEOH      HO1            28.5460784765      -22.3590621234       35.6149037884  MEOH      103             0.0000000000
     14898       795  MEOH      HO2            29.9512050068      -22.8267311206       36.3238871325  MEOH      103             0.0000000000
     14899       795  MEOH      H1A            31.0522675610      -23.1997879389       34.4920605646  MEOH      103             0.0000000000
     14900       795  MEOH      H1B            29.7577514497      -22.3622877967       33.5377981314  MEOH      103             0.0000000000
     14901       795  MEOH      H1C            29.4458615039      -23.9797172304       34.3055120451  MEOH      103             0.0000000000
     14902       795  MEOH      LP1A           29.4906047861      -22.5714657423       35.8683174492  MEOH      103             0.0000000000
     14903       795  MEOH      LP1B           29.4772930940      -21.9995407603       35.5438583397  MEOH      103             0.0000000000
     14904       796  MEOH      C1              6.4190967240       20.6787608811      -33.7703003952  MEOH      104             0.0000000000
     14905       796  MEOH      DC1             6.4186325114       20.6784777996      -33.7693797087  MEOH      104             0.0000000000
     14906       796  MEOH      O1              5.4648249209       21.6312968646      -33.3000011491  MEOH      104             0.0000000000
     14907       796  MEOH      DO1             5.4704002470       21.6311967633      -33.2892574890  MEOH      104             0.0000000000
     14908       796  MEOH      HO1             5.7180286198       22.4964198880      -33.6582608911  MEOH      104             0.0000000000
     14909       796  MEOH      HO2             4.6009675709       21.2629450106      -33.5428331704  MEOH      104             0.0000000000
     14910       796  MEOH      H1A             6.1364985306       19.6571810143      -33.4373832322  MEOH      104             0.0000000000
     14911       796  MEOH      H1B             7.4188835749       20.9227855130      -33.3517323223  MEOH      104             0.0000000000
     14912       796  MEOH      H1C             6.4619504307       20.6962281440      -34.8803361855  MEOH      104             0.0000000000
     14913       796  MEOH      LP1A            5.1959434927       21.6515558446      -33.5231431472  MEOH      104             0.0000000000
     14914       796  MEOH      LP1B            5.5681717794       21.7624078809      -32.9923823456  MEOH      104             0.0000000000
     14915       797  MEOH      C1            -30.1897240513       18.0330630060      -21.8277085336  MEOH      105             0.0000000000
     14916       797  MEOH      DC1           -30.1917128556       18.0404234299      -21.8299418317  MEOH      105             0.0000000000
     14917       797  MEOH      O1            -30.9215749903       17.1718857391      -22.6949317777  MEOH      105             0.0000000000
     14918       797  MEOH      DO1           -30.9189475100       17.1737044062      -22.7078401362  MEOH      105             0.0000000000
     14919       797  MEOH      HO1           -31.0817370859       17.6537324272      -23.5214134009  MEOH      105             0.0000000000
     14920       797  MEOH      HO2           -30.4670986281       16.3151600199      -22.6756372654  MEOH      105             0.0000000000
     14921       797  MEOH      H1A           -30.1547231465       17.5722959631      -20.8173671710  MEOH      105             0.0000000000
     14922       797  MEOH      H1B           -30.6997375392       19.0178817566      -21.7618353854  MEOH      105             0.0000000000
     14923       797  MEOH      H1C           -29.1529510476       18.1720750527      -22.2020057284  MEOH      105             0.0000000000
     14924       797  MEOH      LP1A          -30.7009084884       16.9790529959      -22.8863000824  MEOH      105             0.0000000000
     14925       797  MEOH      LP1B          -31.2651271484       17.2117924582      -22.6412720306  MEOH      105             0.0000000000
     14926       798  MEOH      C1             28.7100821464       -2.1349425722       -0.3021111437  MEOH      106             0.0000000000
     14927       798  MEOH      DC1            28.6963998092       -2.1395136437       -0.3002967234  MEOH      106             0.0000000000
     14928       798  MEOH      O1             27.7025654311       -1.1269651013       -0.1665490944  MEOH      106             0.0000000000
     14929       798  MEOH      DO1            27.6929773778       -1.1328113110       -0.1676927168  MEOH      106             0.0000000000
     14930       798  MEOH      HO1            27.9263567075       -0.4067233846       -0.7765239594  MEOH      106             0.0000000000
     14931       798  MEOH      HO2            26.8472984458       -1.5819834156       -0.2153006860  MEOH      106             0.0000000000
     14932       798  MEOH      H1A            28.5975337147       -2.8950136289        0.5003512163  MEOH      106             0.0000000000
     14933       798  MEOH      H1B            29.7244685323       -1.6881954213       -0.2262280386  MEOH      106             0.0000000000
     14934       798  MEOH      H1C            28.6308367333       -2.6284866264       -1.2943084183  MEOH      106             0.0000000000
     14935       798  MEOH      LP1A           27.4387384939       -1.1909446093       -0.3874607731  MEOH      106             0.0000000000
     14936       798  MEOH      LP1B           27.7925739740       -0.9008044773        0.0849461031  MEOH      106             0.0000000000
     14937       799  MEOH      C1            -35.7125739078      -23.1416864626       30.3878727750  MEOH      107             0.0000000000
     14938       799  MEOH      DC1           -35.7215026486      -23.1330299207       30.3926895916  MEOH      107             0.0000000000
     14939       799  MEOH      O1            -35.7025172485      -24.5570866879       30.5745985675  MEOH      107             0.0000000000
     14940       799  MEOH      DO1           -35.7179611143      -24.5512178828       30.5746002172  MEOH      107             0.0000000000
     14941       799  MEOH      HO1           -35.4292556063      -24.9548921275       29.7331837423  MEOH      107             0.0000000000
     14942       799  MEOH      HO2           -35.1524651844      -24.7055980150       31.3596381285  MEOH      107             0.0000000000
     14943       799  MEOH      H1A           -36.0675663868      -22.6467697971       31.3170438217  MEOH      107             0.0000000000
     14944       799  MEOH      H1B           -36.3810342123      -22.8754910499       29.5413375866  MEOH      107             0.0000000000
     14945       799  MEOH      H1C           -34.6829440017      -22.7835624528       30.1735588681  MEOH      107             0.0000000000
     14946       799  MEOH      LP1A          -35.3889188803      -24.6602725779       30.6908256534  MEOH      107             0.0000000000
     14947       799  MEOH      LP1B          -36.0177890097      -24.6898401670       30.5005699891  MEOH      107             0.0000000000
     14948       800  MEOH      C1            -26.5923940545       14.7590613241      -34.7911935459  MEOH      108             0.0000000000
     14949       800  MEOH      DC1           -26.6011105437       14.7711319235      -34.7774662766  MEOH      108             0.0000000000
     14950       800  MEOH      O1            -27.2359608678       15.5861309210      -33.8173417092  MEOH      108             0.0000000000
     14951       800  MEOH      DO1           -27.2335496025       15.6057130467      -33.8053847838  MEOH      108             0.0000000000
     14952       800  MEOH      HO1           -27.6285612054       16.3182119292      -34.3181634063  MEOH      108             0.0000000000
     14953       800  MEOH      HO2           -27.8150390295       14.9920455798      -33.3147175051  MEOH      108             0.0000000000
     14954       800  MEOH      H1A           -26.1273711217       13.8761309896      -34.3028200222  MEOH      108             0.0000000000
     14955       800  MEOH      H1B           -25.8016028475       15.3314593027      -35.3215998258  MEOH      108             0.0000000000
     14956       800  MEOH      H1C           -27.3347654090       14.3975429330      -35.5345038612  MEOH      108             0.0000000000
     14957       800  MEOH      LP1A          -27.5652781414       15.4784917093      -33.7677036850  MEOH      108             0.0000000000
     14958       800  MEOH      LP1B          -27.0109551970       15.8250302337      -33.6956882403  MEOH      108             0.0000000000
     14959       801  MEOH      C1            -22.9435415508       23.4118221021        7.7202728098  MEOH      109             0.0000000000
     14960       801  MEOH      DC1           -22.9602295821       23.3975879341        7.7319418738  MEOH      109             0.0000000000
     14961       801  MEOH      O1            -22.3679639863       24.5804652807        7.1741985210  MEOH      109             0.0000000000
     14962       801  MEOH      DO1           -22.3841728463       24.5749052893        7.1837572246  MEOH      109             0.0000000000
     14963       801  MEOH      HO1           -22.2387284996       25.2281870717        7.8845890266  MEOH      109             0.0000000000
     14964       801  MEOH      HO2           -21.6136101512       24.2984182655        6.6335509709  MEOH      109             0.0000000000
     14965       801  MEOH      H1A           -23.2612243742       22.7475249292        6.8883425893  MEOH      109             0.0000000000
     14966       801  MEOH      H1B           -23.8165435137       23.6722666367        8.3561636950  MEOH      109             0.0000000000
     14967       801  MEOH      H1C           -22.1561989725       22.9086095760        8.3212635070  MEOH      109             0.0000000000
     14968       801  MEOH      LP1A          -22.0188909966       24.5554606813        7.1789753267  MEOH      109             0.0000000000
     14969       801  MEOH      LP1B          -22.6194963795       24.7986950219        7.0664616415  MEOH      109             0.0000000000
     14970       802  MEOH      C1            -15.6657163088      -32.4309390069       29.2991104746  MEOH      110             0.0000000000
     14971       802  MEOH      DC1           -15.6559157357      -32.4251338685       29.2874050380  MEOH      110             0.0000000000
     14972       802  MEOH      O1            -14.6451604032      -32.7546227241       28.3490522352  MEOH      110             0.0000000000
     14973       802  MEOH      DO1           -14.6316211549      -32.7546452157       28.3567852639  MEOH      110             0.0000000000
     14974       802  MEOH      HO1           -14.9142860629      -33.5799453020       27.9162543358  MEOH      110             0.0000000000
     14975       802  MEOH      HO2           -14.5195460319      -31.9580163616       27.8100352286  MEOH      110             0.0000000000
     14976       802  MEOH      H1A           -15.3835440004      -31.5197356048       29.8686788641  MEOH      110             0.0000000000
     14977       802  MEOH      H1B           -15.7862668459      -33.2565791106       30.0326682350  MEOH      110             0.0000000000
     14978       802  MEOH      H1C           -16.6317605405      -32.2479231080       28.7818245547  MEOH      110             0.0000000000
     14979       802  MEOH      LP1A          -14.7163182200      -32.6043587768       28.0410630938  MEOH      110             0.0000000000
     14980       802  MEOH      LP1B          -14.3974902356      -32.9496056138       28.5011744256  MEOH      110             0.0000000000
     14981       803  MEOH      C1             30.6963549773       10.6716729651      -33.4192018380  MEOH      111             0.0000000000
     14982       803  MEOH      DC1            30.6965283189       10.6679944140      -33.4207261748  MEOH      111             0.0000000000
     14983       803  MEOH      O1             30.3924259385        9.9174608549      -34.5912695892  MEOH      111             0.0000000000
     14984       803  MEOH      DO1            30.3929455303        9.9181573078      -34.5971074220  MEOH      111             0.0000000000
     14985       803  MEOH      HO1            31.1603082436        9.9637064462      -35.1821317650  MEOH      111             0.0000000000
     14986       803  MEOH      HO2            30.0597338858        9.0619976249      -34.2775839798  MEOH      111             0.0000000000
     14987       803  MEOH      H1A            29.8169440041       10.6807700703      -32.7403243937  MEOH      111             0.0000000000
     14988       803  MEOH      H1B            30.9456751352       11.7180580176      -33.6971204977  MEOH      111             0.0000000000
     14989       803  MEOH      H1C            31.5570351685       10.2093781578      -32.8902083414  MEOH      111             0.0000000000
     14990       803  MEOH      LP1A           30.4865516901        9.5833571424      -34.5463802559  MEOH      111             0.0000000000
     14991       803  MEOH      LP1B           30.2369557713       10.1224540512      -34.8285601633  MEOH      111             0.0000000000
     14992       804  MEOH      C1             29.6999911453       -5.6795854480       20.6287272940  MEOH      112             0.0000000000
     14993       804  MEOH      DC1            29.6910710215       -5.6952679959       20.6055796229  MEOH      112             0.0000000000
     14994       804  MEOH      O1             29.3215923324       -7.0362336678       20.4267570383  MEOH      112             0.0000000000
     14995       804  MEOH      DO1            29.3298491548       -7.0510396440       20.4209973562  MEOH      112             0.0000000000
     14996       804  MEOH      HO1            29.5654943538       -7.4758026842       21.2563297498  MEOH      112             0.0000000000
     14997       804  MEOH      HO2            28.3915560505       -7.0098267839       20.1524666953  MEOH      112             0.0000000000
     14998       804  MEOH      H1A            29.4635475960       -5.0556192527       19.7404246218  MEOH      112             0.0000000000
     14999       804  MEOH      H1B            30.7989586145       -5.6631079624       20.7909616762  MEOH      112             0.0000000000
     15000       804  MEOH      H1C            29.1826049950       -5.2554026283       21.5156892475  MEOH      112             0.0000000000
     15001       804  MEOH      LP1A           28.9895768949       -7.0840471654       20.5266550801  MEOH      112             0.0000000000
     15002       804  MEOH      LP1B           29.5861925579       -7.2140842254       20.2823413196  MEOH      112             0.0000000000
     15003       805  MEOH      C1             12.7345630495       22.4085240882       35.2351852107  MEOH      113             0.0000000000
     15004       805  MEOH      DC1            12.7370362623       22.4075357727       35.2127478887  MEOH      113             0.0000000000
     15005       805  MEOH      O1             12.7694970413       23.8113562609       35.0090519546  MEOH      113             0.0000000000
     15006       805  MEOH      DO1            12.7613319884       23.8139067624       35.0033553570  MEOH      113             0.0000000000
     15007       805  MEOH      HO1            11.8449086472       24.0947151341       34.9332624402  MEOH      113             0.0000000000
     15008       805  MEOH      HO2            13.3198349314       24.1744188706       35.7205389531  MEOH      113             0.0000000000
     15009       805  MEOH      H1A            13.7448860497       22.0369504845       35.5099605596  MEOH      113             0.0000000000
     15010       805  MEOH      H1B            12.3442338500       21.8644102763       34.3486727870  MEOH      113             0.0000000000
     15011       805  MEOH      H1C            12.0385721625       22.2266017382       36.0818385898  MEOH      113             0.0000000000
     15012       805  MEOH      LP1A           12.7676877192       23.9819528799       35.3146554885  MEOH      113             0.0000000000
     15013       805  MEOH      LP1B           12.7886612259       23.8768309958       34.6657652040  MEOH      113             0.0000000000
     15014       806  MEOH      C1            -16.8802049716      -25.7091628727       -8.8410344278  MEOH      114             0.0000000000
     15015       806  MEOH      DC1           -16.8808048274      -25.7139152603       -8.8478349498  MEOH      114             0.0000000000
     15016       806  MEOH      O1            -16.5487018987      -25.6428575952      -10.2239435108  MEOH      114             0.0000000000
     15017       806  MEOH      DO1           -16.5410074570      -25.6550119733      -10.2248458872  MEOH      114             0.0000000000
     15018       806  MEOH      HO1           -15.7648351201      -25.0810864364      -10.3281838031  MEOH      114             0.0000000000
     15019       806  MEOH      HO2           -16.6014060996      -26.5456083037      -10.5748899829  MEOH      114             0.0000000000
     15020       806  MEOH      H1A           -17.8824583307      -26.1745851481       -8.7261809969  MEOH      114             0.0000000000
     15021       806  MEOH      H1B           -16.9033666732      -24.6863997654       -8.4077444997  MEOH      114             0.0000000000
     15022       806  MEOH      H1C           -16.1303102039      -26.3208133293       -8.2952665663  MEOH      114             0.0000000000
     15023       806  MEOH      LP1A          -16.3317733073      -25.9044375490      -10.3077165015  MEOH      114             0.0000000000
     15024       806  MEOH      LP1B          -16.7187700509      -25.3769630875      -10.3751947402  MEOH      114             0.0000000000
     15025       807  MEOH      C1             11.4816205586       19.7193327802      -32.8607598879  MEOH      115             0.0000000000
     15026       807  MEOH      DC1            11.4738939081       19.7361660025      -32.8530505183  MEOH      115             0.0000000000
     15027       807  MEOH      O1             12.1296979944       20.8184926741      -33.4919842572  MEOH      115             0.0000000000
     15028       807  MEOH      DO1            12.1121277889       20.8371255298      -33.4879726863  MEOH      115             0.0000000000
     15029       807  MEOH      HO1            12.4006480088       21.4479231318      -32.8054688615  MEOH      115             0.0000000000
     15030       807  MEOH      HO2            12.8186896389       20.4137088195      -34.0418392800  MEOH      115             0.0000000000
     15031       807  MEOH      H1A            11.2338704646       18.9444057841      -33.6173502936  MEOH      115             0.0000000000
     15032       807  MEOH      H1B            10.5216841071       20.0491437373      -32.4090213113  MEOH      115             0.0000000000
     15033       807  MEOH      H1C            12.1536318508       19.2767693974      -32.0946923474  MEOH      115             0.0000000000
     15034       807  MEOH      LP1A           12.4723332180       20.7539487644      -33.5225650889  MEOH      115             0.0000000000
     15035       807  MEOH      LP1B           11.8944069399       21.0629776714      -33.5778050344  MEOH      115             0.0000000000
     15036       808  MEOH      C1             -4.8855967606       15.8801660856      -36.5583988434  MEOH      116             0.0000000000
     15037       808  MEOH      DC1            -4.8955599836       15.9027566510      -36.5779980703  MEOH      116             0.0000000000
     15038       808  MEOH      O1             -3.6340839683       15.2306567556      -36.3582113135  MEOH      116             0.0000000000
     15039       808  MEOH      DO1            -3.6418035507       15.2457052781      -36.3794826547  MEOH      116             0.0000000000
     15040       808  MEOH      HO1            -3.8109720093       14.3078694916      -36.1172252410  MEOH      116             0.0000000000
     15041       808  MEOH      HO2            -3.0643092007       15.4800488555      -37.1025635787  MEOH      116             0.0000000000
     15042       808  MEOH      H1A            -4.7134331475       16.9770240265      -36.5981901452  MEOH      116             0.0000000000
     15043       808  MEOH      H1B            -5.5664432571       15.6344273433      -35.7155575058  MEOH      116             0.0000000000
     15044       808  MEOH      H1C            -5.3520450963       15.5387933075      -37.5071936459  MEOH      116             0.0000000000
     15045       808  MEOH      LP1A           -3.5190927706       15.0966164273      -36.6603871147  MEOH      116             0.0000000000
     15046       808  MEOH      LP1B           -3.5332109957       15.2652915372      -36.0248570345  MEOH      116             0.0000000000
     15047       809  MEOH      C1             25.5120233008       -1.2352904499        9.5807022246  MEOH      117             0.0000000000
     15048       809  MEOH      DC1            25.5010998337       -1.2460667131        9.5662842205  MEOH      117             0.0000000000
     15049       809  MEOH      O1             25.0873714702        0.0924061237        9.8808602970  MEOH      117             0.0000000000
     15050       809  MEOH      DO1            25.0882149691        0.0901121647        9.8614688218  MEOH      117             0.0000000000
     15051       809  MEOH      HO1            25.5642579077        0.3764447032       10.6763484561  MEOH      117             0.0000000000
     15052       809  MEOH      HO2            25.1312453966        0.5921983768        9.0506899632  MEOH      117             0.0000000000
     15053       809  MEOH      H1A            24.8494653910       -1.6894724097        8.8132018887  MEOH      117             0.0000000000
     15054       809  MEOH      H1B            25.4663231173       -1.8431394375       10.5095467233  MEOH      117             0.0000000000
     15055       809  MEOH      H1C            26.5556133647       -1.2199712892        9.1999055573  MEOH      117             0.0000000000
     15056       809  MEOH      LP1A           25.2901216086        0.3236042826        9.7137082923  MEOH      117             0.0000000000
     15057       809  MEOH      LP1B           24.8063358467        0.0839578489       10.0893011879  MEOH      117             0.0000000000
     15058       810  MEOH      C1             35.7843475847      -28.4533524846       35.4028062837  MEOH      118             0.0000000000
     15059       810  MEOH      DC1            35.7908933064      -28.4574541187       35.4083343935  MEOH      118             0.0000000000
     15060       810  MEOH      O1             36.8706923382      -27.8666604830       36.1283801934  MEOH      118             0.0000000000
     15061       810  MEOH      DO1            36.8705157564      -27.8661967682       36.1297545512  MEOH      118             0.0000000000
     15062       810  MEOH      HO1            36.7666735052      -26.9025783841       36.1033643914  MEOH      118             0.0000000000
     15063       810  MEOH      HO2            36.9500460758      -28.3493946915       36.9659783478  MEOH      118             0.0000000000
     15064       810  MEOH      H1A            35.9313441276      -29.5497833616       35.3000816509  MEOH      118             0.0000000000
     15065       810  MEOH      H1B            35.7267731522      -28.0183862918       34.3821150492  MEOH      118             0.0000000000
     15066       810  MEOH      H1C            34.8267850613      -28.2819409767       35.9394748116  MEOH      118             0.0000000000
     15067       810  MEOH      LP1A           36.7855818597      -27.8348879409       36.4663842053  MEOH      118             0.0000000000
     15068       810  MEOH      LP1B           37.1415827702      -27.8108131258       35.9139053778  MEOH      118             0.0000000000
     15069       811  MEOH      C1             -7.2392555344      -32.3995726563      -36.3461971448  MEOH      119             0.0000000000
     15070       811  MEOH      DC1            -7.2332418353      -32.4083079827      -36.3379199400  MEOH      119             0.0000000000
     15071       811  MEOH      O1             -8.0511395950      -33.4541496001      -36.8987642999  MEOH      119             0.0000000000
     15072       811  MEOH      DO1            -8.0551784112      -33.4532776134      -36.9058790037  MEOH      119             0.0000000000
     15073       811  MEOH      HO1            -7.4754205271      -34.1214381230      -37.3039476931  MEOH      119             0.0000000000
     15074       811  MEOH      HO2            -8.7033729994      -33.6986866803      -36.2237137809  MEOH      119             0.0000000000
     15075       811  MEOH      H1A            -7.8549124105      -31.4830268414      -36.2227816677  MEOH      119             0.0000000000
     15076       811  MEOH      H1B            -6.3324265771      -32.2308641124      -36.9654867951  MEOH      119             0.0000000000
     15077       811  MEOH      H1C            -6.8400401207      -32.5625748086      -35.3222936571  MEOH      119             0.0000000000
     15078       811  MEOH      LP1A           -8.1087241672      -33.7002520784      -36.6566536078  MEOH      119             0.0000000000
     15079       811  MEOH      LP1B           -8.1379114066      -33.3778188698      -37.2291342021  MEOH      119             0.0000000000
     15080       812  MEOH      C1              4.6099028461      -24.0919411545      -13.8230959961  MEOH      120             0.0000000000
     15081       812  MEOH      DC1             4.6123967270      -24.1011377012      -13.8154204326  MEOH      120             0.0000000000
     15082       812  MEOH      O1              3.3061950688      -23.6558831005      -13.4240518589  MEOH      120             0.0000000000
     15083       812  MEOH      DO1             3.3025138303      -23.6575823904      -13.4201766784  MEOH      120             0.0000000000
     15084       812  MEOH      HO1             2.7789487204      -24.4411764730      -13.2090504469  MEOH      120             0.0000000000
     15085       812  MEOH      HO2             3.4451773110      -22.9509907287      -12.7723535536  MEOH      120             0.0000000000
     15086       812  MEOH      H1A             5.2049159365      -23.2147886614      -14.1560883785  MEOH      120             0.0000000000
     15087       812  MEOH      H1B             4.5291806495      -24.7924647628      -14.6816247383  MEOH      120             0.0000000000
     15088       812  MEOH      H1C             5.1248869891      -24.5890656227      -12.9734021707  MEOH      120             0.0000000000
     15089       812  MEOH      LP1A            3.3001690714      -23.5965435377      -13.0791714395  MEOH      120             0.0000000000
     15090       812  MEOH      LP1B            3.0973235431      -23.6313730998      -13.7038230969  MEOH      120             0.0000000000
     15091       813  MEOH      C1            -15.3045002151       12.6867794193        2.6640947550  MEOH      121             0.0000000000
     15092       813  MEOH      DC1           -15.3004514736       12.6930624275        2.6637736798  MEOH      121             0.0000000000
     15093       813  MEOH      O1            -14.1714179791       12.4846946481        3.5105422545  MEOH      121             0.0000000000
     15094       813  MEOH      DO1           -14.1644061186       12.4856627793        3.4936079999  MEOH      121             0.0000000000
     15095       813  MEOH      HO1           -13.8400135764       11.5799737574        3.3985099747  MEOH      121             0.0000000000
     15096       813  MEOH      HO2           -13.6087468619       13.2698747761        3.4222621194  MEOH      121             0.0000000000
     15097       813  MEOH      H1A           -15.7983401216       13.6457821788        2.9300963611  MEOH      121             0.0000000000
     15098       813  MEOH      H1B           -16.0380152094       11.8672641385        2.8211662596  MEOH      121             0.0000000000
     15099       813  MEOH      H1C           -14.9988468570       12.7155766613        1.5963552056  MEOH      121             0.0000000000
     15100       813  MEOH      LP1A          -13.8784260244       12.5757482507        3.3421232652  MEOH      121             0.0000000000
     15101       813  MEOH      LP1B          -14.2754647092       12.3705621500        3.8246251271  MEOH      121             0.0000000000
     15102       814  MEOH      C1            -33.6215179882      -21.3168834414      -24.2493226534  MEOH      122             0.0000000000
     15103       814  MEOH      DC1           -33.6286118500      -21.3255696668      -24.2493666875  MEOH      122             0.0000000000
     15104       814  MEOH      O1            -34.8824600892      -21.8557347328      -23.8700974696  MEOH      122             0.0000000000
     15105       814  MEOH      DO1           -34.8852164325      -21.8642632966      -23.8753443111  MEOH      122             0.0000000000
     15106       814  MEOH      HO1           -35.3750324687      -22.0736182829      -24.6768187415  MEOH      122             0.0000000000
     15107       814  MEOH      HO2           -34.6972466660      -22.5293238291      -23.1971385427  MEOH      122             0.0000000000
     15108       814  MEOH      H1A           -33.0728636146      -21.0235788267      -23.3288489812  MEOH      122             0.0000000000
     15109       814  MEOH      H1B           -33.7631875214      -20.4224775441      -24.8929753825  MEOH      122             0.0000000000
     15110       814  MEOH      H1C           -33.0280267179      -22.0761590052      -24.8021243636  MEOH      122             0.0000000000
     15111       814  MEOH      LP1A          -34.8573509301      -22.2025593164      -23.8303201100  MEOH      122             0.0000000000
     15112       814  MEOH      LP1B          -35.1169782539      -21.5983069708      -23.8349950798  MEOH      122             0.0000000000
     15113       815  MEOH      C1             20.0927459175      -23.2132512407       33.9221991438  MEOH      123             0.0000000000
     15114       815  MEOH      DC1            20.0977442394      -23.2096439359       33.9280966036  MEOH      123             0.0000000000
     15115       815  MEOH      O1             21.1952447446      -22.6962300624       34.6635444105  MEOH      123             0.0000000000
     15116       815  MEOH      DO1            21.2016154692      -22.6875375670       34.6593848367  MEOH      123             0.0000000000
     15117       815  MEOH      HO1            21.5303039723      -21.9315155673       34.1697356868  MEOH      123             0.0000000000
     15118       815  MEOH      HO2            20.8665034215      -22.5726156655       35.5677283649  MEOH      123             0.0000000000
     15119       815  MEOH      H1A            19.7100083559      -24.1213301107       34.4352544287  MEOH      123             0.0000000000
     15120       815  MEOH      H1B            20.4130369703      -23.4833434459       32.8932264317  MEOH      123             0.0000000000
     15121       815  MEOH      H1C            19.2792932944      -22.4586411526       33.8658125634  MEOH      123             0.0000000000
     15122       815  MEOH      LP1A           21.0828895534      -22.4600235586       34.8961014972  MEOH      123             0.0000000000
     15123       815  MEOH      LP1B           21.4912812572      -22.8538081506       34.5633868880  MEOH      123             0.0000000000
     15124       816  MEOH      C1             28.9085411116       14.4111979963       35.3749021802  MEOH      124             0.0000000000
     15125       816  MEOH      DC1            28.9078045777       14.3980462081       35.3714727318  MEOH      124             0.0000000000
     15126       816  MEOH      O1             28.9194413860       12.9883946461       35.4992889111  MEOH      124             0.0000000000
     15127       816  MEOH      DO1            28.9295259483       12.9859494582       35.5003633479  MEOH      124             0.0000000000
     15128       816  MEOH      HO1            28.1311041648       12.6456704397       35.0498842552  MEOH      124             0.0000000000
     15129       816  MEOH      HO2            29.8097645609       12.7008912781       35.2432294303  MEOH      124             0.0000000000
     15130       816  MEOH      H1A            29.8086700363       14.8384783235       35.8663494724  MEOH      124             0.0000000000
     15131       816  MEOH      H1B            28.0149454009       14.8435238085       35.8738030713  MEOH      124             0.0000000000
     15132       816  MEOH      H1C            28.9418004146       14.7111799548       34.3056848759  MEOH      124             0.0000000000
     15133       816  MEOH      LP1A           29.0952809336       12.8462197863       35.2321433277  MEOH      124             0.0000000000
     15134       816  MEOH      LP1B           28.7552552287       12.8926636766       35.7931910840  MEOH      124             0.0000000000
     15135       817  MEOH      C1            -36.4477139757      -20.4977528573       24.8914149854  MEOH      125             0.0000000000
     15136       817  MEOH      DC1           -36.4485182869      -20.4734722087       24.8982950252  MEOH      125             0.0000000000
     15137       817  MEOH      O1            -36.5597198701      -21.8903285855       24.6130110075  MEOH      125             0.0000000000
     15138       817  MEOH      DO1           -36.5569576688      -21.8755955668       24.6159441873  MEOH      125             0.0000000000
     15139       817  MEOH      HO1           -37.4550389113      -22.0554146519       24.2782716983  MEOH      125             0.0000000000
     15140       817  MEOH      HO2           -35.7927349998      -22.1020981949       24.0582247038  MEOH      125             0.0000000000
     15141       817  MEOH      H1A           -35.5205507006      -20.2855143030       25.4655613582  MEOH      125             0.0000000000
     15142       817  MEOH      H1B           -37.3364793480      -20.1936231851       25.4846453430  MEOH      125             0.0000000000
     15143       817  MEOH      H1C           -36.4018687195      -19.9355369510       23.9342668841  MEOH      125             0.0000000000
     15144       817  MEOH      LP1A          -36.4586626967      -21.9551865560       24.2842544237  MEOH      125             0.0000000000
     15145       817  MEOH      LP1B          -36.6687602825      -22.0610718592       24.8984175998  MEOH      125             0.0000000000
     15146       818  MEOH      C1            -27.8695098532       12.1809008176      -32.0757547646  MEOH      126             0.0000000000
     15147       818  MEOH      DC1           -27.8711811569       12.1742394960      -32.0739899528  MEOH      126             0.0000000000
     15148       818  MEOH      O1            -28.8347191824       11.2793448247      -32.6089649804  MEOH      126             0.0000000000
     15149       818  MEOH      DO1           -28.8405233223       11.2784288129      -32.6091646118  MEOH      126             0.0000000000
     15150       818  MEOH      HO1           -29.0252811982       10.6254089439      -31.9183464293  MEOH      126             0.0000000000
     15151       818  MEOH      HO2           -29.5380445372       11.8279555983      -32.9900944393  MEOH      126             0.0000000000
     15152       818  MEOH      H1A           -27.5251283865       12.8804598921      -32.8671709057  MEOH      126             0.0000000000
     15153       818  MEOH      H1B           -26.9925127905       11.6206556207      -31.6867528728  MEOH      126             0.0000000000
     15154       818  MEOH      H1C           -28.3325967328       12.7697434291      -31.2553061550  MEOH      126             0.0000000000
     15155       818  MEOH      LP1A          -29.1576761489       11.3977622473      -32.5443421376  MEOH      126             0.0000000000
     15156       818  MEOH      LP1B          -28.6740297815       11.0152529108      -32.7730819432  MEOH      126             0.0000000000
     15157       819  MEOH      C1            -23.8449035197      -14.9808566520       -8.0172230802  MEOH      127             0.0000000000
     15158       819  MEOH      DC1           -23.8519963446      -14.9888787238       -8.0144179587  MEOH      127             0.0000000000
     15159       819  MEOH      O1            -24.4964512170      -15.7659741398       -9.0109887750  MEOH      127             0.0000000000
     15160       819  MEOH      DO1           -24.5032132977      -15.7714518676       -9.0121533106  MEOH      127             0.0000000000
     15161       819  MEOH      HO1           -23.8736536491      -16.4672876162       -9.2583399395  MEOH      127             0.0000000000
     15162       819  MEOH      HO2           -25.3834101841      -15.9566900934       -8.6677232574  MEOH      127             0.0000000000
     15163       819  MEOH      H1A           -24.4420380217      -14.0677420939       -7.8075252242  MEOH      127             0.0000000000
     15164       819  MEOH      H1B           -22.8420288110      -14.6581625840       -8.3699720804  MEOH      127             0.0000000000
     15165       819  MEOH      H1C           -23.7262339339      -15.5779836827       -7.0878803877  MEOH      127             0.0000000000
     15166       819  MEOH      LP1A          -24.6805876149      -16.0221489634       -8.8594359898  MEOH      127             0.0000000000
     15167       819  MEOH      LP1B          -24.4310712965      -15.6349884498       -9.3289010507  MEOH      127             0.0000000000
     15168       820  MEOH      C1             -5.5555327621      -25.3177282166       22.3908058756  MEOH      128             0.0000000000
     15169       820  MEOH      DC1            -5.5507669249      -25.3196747514       22.3933206252  MEOH      128             0.0000000000
     15170       820  MEOH      O1             -5.4135634933      -25.1265474858       20.9797524812  MEOH      128             0.0000000000
     15171       820  MEOH      DO1            -5.4033140063      -25.1251180521       20.9887961183  MEOH      128             0.0000000000
     15172       820  MEOH      HO1            -4.4745621828      -25.0218428747       20.7601767920  MEOH      128             0.0000000000
     15173       820  MEOH      HO2            -5.9254915900      -25.8380859260       20.5643699194  MEOH      128             0.0000000000
     15174       820  MEOH      H1A            -6.6361321169      -25.3774656349       22.6419183497  MEOH      128             0.0000000000
     15175       820  MEOH      H1B            -5.0997740152      -24.4697733219       22.9454025410  MEOH      128             0.0000000000
     15176       820  MEOH      H1C            -5.0669387770      -26.2647187729       22.7051397780  MEOH      128             0.0000000000
     15177       820  MEOH      LP1A           -5.3808005941      -25.4360845361       20.8197105901  MEOH      128             0.0000000000
     15178       820  MEOH      LP1B           -5.4339597975      -24.7857966301       20.9024682974  MEOH      128             0.0000000000
     15179       821  MEOH      C1            -32.0290510143       23.6865542339        7.6538613887  MEOH      129             0.0000000000
     15180       821  MEOH      DC1           -32.0172398621       23.6829464014        7.6482336667  MEOH      129             0.0000000000
     15181       821  MEOH      O1            -32.0802809045       25.0685242947        7.2853369124  MEOH      129             0.0000000000
     15182       821  MEOH      DO1           -32.0784982932       25.0720495804        7.2713497111  MEOH      129             0.0000000000
     15183       821  MEOH      HO1           -31.3980126630       25.2110010574        6.6107181914  MEOH      129             0.0000000000
     15184       821  MEOH      HO2           -33.0132650044       25.2712133164        7.1139956407  MEOH      129             0.0000000000
     15185       821  MEOH      H1A           -32.6795192405       23.5087828053        8.5368163173  MEOH      129             0.0000000000
     15186       821  MEOH      H1B           -30.9931907355       23.3960476551        7.9312066822  MEOH      129             0.0000000000
     15187       821  MEOH      H1C           -32.3753050091       23.0607933859        6.8036540419  MEOH      129             0.0000000000
     15188       821  MEOH      LP1A          -32.3070176253       25.1140313946        7.0226211662  MEOH      129             0.0000000000
     15189       821  MEOH      LP1B          -31.8706940987       25.2558659308        7.4938470614  MEOH      129             0.0000000000
     15190       822  MEOH      C1             27.4526622389        7.4036540280       27.0078284279  MEOH      130             0.0000000000
     15191       822  MEOH      DC1            27.4612843874        7.4116143005       27.0169466900  MEOH      130             0.0000000000
     15192       822  MEOH      O1             27.1156945712        6.3848116788       26.0664641068  MEOH      130             0.0000000000
     15193       822  MEOH      DO1            27.1193732617        6.3947291829       26.0749950781  MEOH      130             0.0000000000
     15194       822  MEOH      HO1            27.3710986658        5.5253980168       26.4367030919  MEOH      130             0.0000000000
     15195       822  MEOH      HO2            26.1920381437        6.5463771373       25.8181590368  MEOH      130             0.0000000000
     15196       822  MEOH      H1A            27.2514927529        8.3993067392       26.5577978529  MEOH      130             0.0000000000
     15197       822  MEOH      H1B            28.5309183958        7.3459949549       27.2692860571  MEOH      130             0.0000000000
     15198       822  MEOH      H1C            26.8292840383        7.3014360627       27.9217606500  MEOH      130             0.0000000000
     15199       822  MEOH      LP1A           26.7881949830        6.2743829895       26.1216866048  MEOH      130             0.0000000000
     15200       822  MEOH      LP1B           27.3825801040        6.3323413885       25.8461938614  MEOH      130             0.0000000000
     15201       823  MEOH      C1             28.1447480614       29.7306862513      -13.1407222023  MEOH      131             0.0000000000
     15202       823  MEOH      DC1            28.1365488062       29.7273167930      -13.1394498116  MEOH      131             0.0000000000
     15203       823  MEOH      O1             26.8325955566       30.0714342474      -12.6849251745  MEOH      131             0.0000000000
     15204       823  MEOH      DO1            26.8278818655       30.0710649232      -12.6861886667  MEOH      131             0.0000000000
     15205       823  MEOH      HO1            26.4469763135       30.6748764875      -13.3391844984  MEOH      131             0.0000000000
     15206       823  MEOH      HO2            26.3954541142       29.2354782347      -12.4591268037  MEOH      131             0.0000000000
     15207       823  MEOH      H1A            28.6542604099       29.1008470467      -12.3804454481  MEOH      131             0.0000000000
     15208       823  MEOH      H1B            28.7448748445       30.6498534659      -13.3118960235  MEOH      131             0.0000000000
     15209       823  MEOH      H1C            28.0999584898       29.1533431803      -14.0888729673  MEOH      131             0.0000000000
     15210       823  MEOH      LP1A           26.5998638637       29.8398231458      -12.8061367941  MEOH      131             0.0000000000
     15211       823  MEOH      LP1B           26.8471745493       30.3534565623      -12.4781623469  MEOH      131             0.0000000000
     15212       824  MEOH      C1             28.9442166489        7.7626962136        4.8903862668  MEOH      132             0.0000000000
     15213       824  MEOH      DC1            28.9400681471        7.7615588532        4.8869514058  MEOH      132             0.0000000000
     15214       824  MEOH      O1             29.8941244831        6.9185496853        5.5219748836  MEOH      132             0.0000000000
     15215       824  MEOH      DO1            29.8832964037        6.9126188169        5.5181266765  MEOH      132             0.0000000000
     15216       824  MEOH      HO1            30.1372095244        6.2262255354        4.8875484215  MEOH      132             0.0000000000
     15217       824  MEOH      HO2            30.5743282153        7.5146171139        5.8725836444  MEOH      132             0.0000000000
     15218       824  MEOH      H1A            28.6316552179        8.5597928462        5.5983857796  MEOH      132             0.0000000000
     15219       824  MEOH      H1B            28.0566762980        7.1566018784        4.6088853205  MEOH      132             0.0000000000
     15220       824  MEOH      H1C            29.3802270537        8.2365949692        3.9850488173  MEOH      132             0.0000000000
     15221       824  MEOH      LP1A           30.2176785599        7.0400049854        5.4666452401  MEOH      132             0.0000000000
     15222       824  MEOH      LP1B           29.7302395478        6.6611141781        5.6933478325  MEOH      132             0.0000000000
     15223       825  MEOH      C1            -20.8055661130       32.3347473165        3.8787686412  MEOH      133             0.0000000000
     15224       825  MEOH      DC1           -20.8068764309       32.3385762964        3.8843515642  MEOH      133             0.0000000000
     15225       825  MEOH      O1            -20.7197376943       33.5810667456        3.1835116986  MEOH      133             0.0000000000
     15226       825  MEOH      DO1           -20.7209921460       33.5827928944        3.1896787794  MEOH      133             0.0000000000
     15227       825  MEOH      HO1           -20.9549458284       34.2958246208        3.7956377588  MEOH      133             0.0000000000
     15228       825  MEOH      HO2           -19.8652816514       33.5809528289        2.7243767959  MEOH      133             0.0000000000
     15229       825  MEOH      H1A           -20.6537059654       31.5029349899        3.1581107827  MEOH      133             0.0000000000
     15230       825  MEOH      H1B           -21.8129640695       32.2254245208        4.3343110483  MEOH      133             0.0000000000
     15231       825  MEOH      H1C           -20.0246615366       32.2745256759        4.6667295522  MEOH      133             0.0000000000
     15232       825  MEOH      LP1A          -20.3955474124       33.7104370108        3.2092798111  MEOH      133             0.0000000000
     15233       825  MEOH      LP1B          -21.0263827761       33.6548604483        3.0317774465  MEOH      133             0.0000000000
     15234       826  MEOH      C1              2.5542792963      -13.1097252708      -30.9777303275  MEOH      134             0.0000000000
     15235       826  MEOH      DC1             2.5467773822      -13.1096340493      -30.9618013203  MEOH      134             0.0000000000
     15236       826  MEOH      O1              3.8856003859      -12.8634819767      -30.5303391177  MEOH      134             0.0000000000
     15237       826  MEOH      DO1             3.8776730475      -12.8649323913      -30.5129786704  MEOH      134             0.0000000000
     15238       826  MEOH      HO1             4.4531313564      -13.0238180104      -31.3004695961  MEOH      134             0.0000000000
     15239       826  MEOH      HO2             3.8671432604      -11.9745818467      -30.1425042380  MEOH      134             0.0000000000
     15240       826  MEOH      H1A             1.8352679647      -12.8796437602      -30.1626191673  MEOH      134             0.0000000000
     15241       826  MEOH      H1B             2.4513031084      -14.1742140653      -31.2786962924  MEOH      134             0.0000000000
     15242       826  MEOH      H1C             2.3248967966      -12.4661623069      -31.8538190106  MEOH      134             0.0000000000
     15243       826  MEOH      LP1A            3.9662726685      -12.5258110043      -30.5747271477  MEOH      134             0.0000000000
     15244       826  MEOH      LP1B            4.0244769868      -13.1572851201      -30.4003660334  MEOH      134             0.0000000000
     15245       827  MEOH      C1              1.0008153627       27.1960735100      -32.3481601539  MEOH      135             0.0000000000
     15246       827  MEOH      DC1             1.0147705948       27.2299090645      -32.3502427157  MEOH      135             0.0000000000
     15247       827  MEOH      O1              1.2608850388       28.2589070358      -33.2668158344  MEOH      135             0.0000000000
     15248       827  MEOH      DO1             1.2735509325       28.2930073051      -33.2808529352  MEOH      135             0.0000000000
     15249       827  MEOH      HO1             2.1910242213       28.1106937779      -33.4987079029  MEOH      135             0.0000000000
     15250       827  MEOH      HO2             0.5903881094       28.1492986881      -33.9591451487  MEOH      135             0.0000000000
     15251       827  MEOH      H1A            -0.0945938154       27.0426499131      -32.2439443568  MEOH      135             0.0000000000
     15252       827  MEOH      H1B             1.4477325410       27.4024614655      -31.3521731813  MEOH      135             0.0000000000
     15253       827  MEOH      H1C             1.4433699322       26.2472152260      -32.7198245327  MEOH      135             0.0000000000
     15254       827  MEOH      LP1A            1.1843131070       28.1568533899      -33.5927326837  MEOH      135             0.0000000000
     15255       827  MEOH      LP1B            1.3702265236       28.5427373538      -33.0936546660  MEOH      135             0.0000000000
     15256       828  MEOH      C1             16.2950076245       -7.6599905777      -34.2438142407  MEOH      136             0.0000000000
     15257       828  MEOH      DC1            16.2921759889       -7.6616088086      -34.2354224380  MEOH      136             0.0000000000
     15258       828  MEOH      O1             15.3807285786       -7.0272894037      -33.3435158021  MEOH      136             0.0000000000
     15259       828  MEOH      DO1            15.3765842903       -7.0289143216      -33.3359462486  MEOH      136             0.0000000000
     15260       828  MEOH      HO1            15.8017297684       -6.2045842700      -33.0488732030  MEOH      136             0.0000000000
     15261       828  MEOH      HO2            14.5334757635       -6.9909742341      -33.8144126870  MEOH      136             0.0000000000
     15262       828  MEOH      H1A            15.8714934237       -8.6277497514      -34.5879056615  MEOH      136             0.0000000000
     15263       828  MEOH      H1B            17.2648226772       -7.8487251087      -33.7357207051  MEOH      136             0.0000000000
     15264       828  MEOH      H1C            16.4664208564       -7.0128320351      -35.1304507641  MEOH      136             0.0000000000
     15265       828  MEOH      LP1A           15.1633302358       -6.8181754346      -33.5210244173  MEOH      136             0.0000000000
     15266       828  MEOH      LP1B           15.4377073270       -7.1391613533      -33.0168078451  MEOH      136             0.0000000000
     15267       829  MEOH      C1            -20.8515407537       24.2595636759      -15.2341427574  MEOH      137             0.0000000000
     15268       829  MEOH      DC1           -20.8473701894       24.2611995607      -15.2351063111  MEOH      137             0.0000000000
     15269       829  MEOH      O1            -19.9610237765       24.7380182539      -14.2214461856  MEOH      137             0.0000000000
     15270       829  MEOH      DO1           -19.9646999975       24.7328638716      -14.2190439864  MEOH      137             0.0000000000
     15271       829  MEOH      HO1           -19.7398745065       25.6615037823      -14.4193539401  MEOH      137             0.0000000000
     15272       829  MEOH      HO2           -20.3727745336       24.5069563054      -13.3741140835  MEOH      137             0.0000000000
     15273       829  MEOH      H1A           -21.0240997314       23.1702280579      -15.1003806138  MEOH      137             0.0000000000
     15274       829  MEOH      H1B           -20.4103151873       24.4214940859      -16.2408301683  MEOH      137             0.0000000000
     15275       829  MEOH      H1C           -21.8271247769       24.7867708626      -15.1662502246  MEOH      137             0.0000000000
     15276       829  MEOH      LP1A          -20.1438833892       24.8728544258      -13.9552102586  MEOH      137             0.0000000000
     15277       829  MEOH      LP1B          -19.6295464322       24.6729940769      -14.3130683806  MEOH      137             0.0000000000
     15278       830  MEOH      C1              9.3119008386      -19.4815943435        1.7267755986  MEOH      138             0.0000000000
     15279       830  MEOH      DC1             9.3231284828      -19.4650700656        1.7249664460  MEOH      138             0.0000000000
     15280       830  MEOH      O1              8.0305874781      -19.9026359695        1.2635543302  MEOH      138             0.0000000000
     15281       830  MEOH      DO1             8.0464844251      -19.8967224347        1.2539317152  MEOH      138             0.0000000000
     15282       830  MEOH      HO1             8.0025302346      -19.8966542963        0.2939786438  MEOH      138             0.0000000000
     15283       830  MEOH      HO2             7.7939079418      -20.6897945564        1.7785923444  MEOH      138             0.0000000000
     15284       830  MEOH      H1A             9.2923577089      -19.4068523733        2.8350863425  MEOH      138             0.0000000000
     15285       830  MEOH      H1B             9.5710428328      -18.4875814785        1.3035677878  MEOH      138             0.0000000000
     15286       830  MEOH      H1C            10.0701584147      -20.2368609494        1.4285495033  MEOH      138             0.0000000000
     15287       830  MEOH      LP1A            8.0255442054      -20.2504868452        1.2251572776  MEOH      138             0.0000000000
     15288       830  MEOH      LP1B            7.8170304210      -19.6268094803        1.2350388746  MEOH      138             0.0000000000
     15289       831  MEOH      C1            -32.0236060047       -3.0914723757        9.5080804610  MEOH      139             0.0000000000
     15290       831  MEOH      DC1           -32.0335024607       -3.0908395083        9.5131239329  MEOH      139             0.0000000000
     15291       831  MEOH      O1            -33.3140732935       -3.4318358095        8.9969198047  MEOH      139             0.0000000000
     15292       831  MEOH      DO1           -33.3194059971       -3.4371113748        8.9939283427  MEOH      139             0.0000000000
     15293       831  MEOH      HO1           -33.7585944750       -3.9659933799        9.6736594955  MEOH      139             0.0000000000
     15294       831  MEOH      HO2           -33.7078294523       -2.5927498759        8.7109287486  MEOH      139             0.0000000000
     15295       831  MEOH      H1A           -31.4471852759       -2.5295105225        8.7424049299  MEOH      139             0.0000000000
     15296       831  MEOH      H1B           -31.4617390489       -4.0131588499        9.7709883699  MEOH      139             0.0000000000
     15297       831  MEOH      H1C           -32.1266596035       -2.4507461553       10.4098403330  MEOH      139             0.0000000000
     15298       831  MEOH      LP1A          -33.5460012252       -3.1842011560        9.0828646295  MEOH      139             0.0000000000
     15299       831  MEOH      LP1B          -33.2960273946       -3.7307176179        8.8156906401  MEOH      139             0.0000000000
     15300       832  MEOH      C1             33.8383605491       10.9251631587        8.9710486159  MEOH      140             0.0000000000
     15301       832  MEOH      DC1            33.8332569066       10.9289128577        8.9783114895  MEOH      140             0.0000000000
     15302       832  MEOH      O1             35.0252963300       10.3637226391        9.5287338212  MEOH      140             0.0000000000
     15303       832  MEOH      DO1            35.0137967218       10.3617441996        9.5401566793  MEOH      140             0.0000000000
     15304       832  MEOH      HO1            35.5203690331       11.0691928240        9.9738347501  MEOH      140             0.0000000000
     15305       832  MEOH      HO2            34.7529401464        9.5648427552       10.0067641981  MEOH      140             0.0000000000
     15306       832  MEOH      H1A            33.3365050372       10.1684931106        8.3308045347  MEOH      140             0.0000000000
     15307       832  MEOH      H1B            34.1103784825       11.7965542929        8.3377992680  MEOH      140             0.0000000000
     15308       832  MEOH      H1C            33.1408422416       11.2394831879        9.7766490941  MEOH      140             0.0000000000
     15309       832  MEOH      LP1A           34.9621641175       10.2482358783        9.8530440612  MEOH      140             0.0000000000
     15310       832  MEOH      LP1B           35.2846508493       10.3746641755        9.2939668811  MEOH      140             0.0000000000
     15311       833  MEOH      C1             10.6141916917      -14.9414369003        8.5264834081  MEOH      141             0.0000000000
     15312       833  MEOH      DC1            10.6118003730      -14.9403494117        8.5201146945  MEOH      141             0.0000000000
     15313       833  MEOH      O1              9.2473286266      -14.5347925382        8.6216024932  MEOH      141             0.0000000000
     15314       833  MEOH      DO1             9.2455565361      -14.5381969827        8.6092542957  MEOH      141             0.0000000000
     15315       833  MEOH      HO1             9.0227110104      -14.4935070178        9.5643338621  MEOH      141             0.0000000000
     15316       833  MEOH      HO2             9.1623517607      -13.7456854493        8.0639386746  MEOH      141             0.0000000000
     15317       833  MEOH      H1A            10.8859931460      -15.0945454142        7.4601800963  MEOH      141             0.0000000000
     15318       833  MEOH      H1B            10.7734261787      -15.8893345425        9.0836686897  MEOH      141             0.0000000000
     15319       833  MEOH      H1C            11.2733169645      -14.1523815937        8.9475138097  MEOH      141             0.0000000000
     15320       833  MEOH      LP1A            9.2268144663      -14.1855648177        8.6325189232  MEOH      141             0.0000000000
     15321       833  MEOH      LP1B            9.0382317627      -14.8153938810        8.6151691486  MEOH      141             0.0000000000
     15322       834  MEOH      C1              1.6027511199       23.3449175756      -14.4863561685  MEOH      142             0.0000000000
     15323       834  MEOH      DC1             1.5979894335       23.3255533745      -14.4856820236  MEOH      142             0.0000000000
     15324       834  MEOH      O1              1.3473055816       22.0390936614      -13.9607529766  MEOH      142             0.0000000000
     15325       834  MEOH      DO1             1.3430755549       22.0323301906      -13.9489210917  MEOH      142             0.0000000000
     15326       834  MEOH      HO1             0.8375295820       21.5538945393      -14.6282934195  MEOH      142             0.0000000000
     15327       834  MEOH      HO2             2.2071341083       21.6974936084      -13.6693695375  MEOH      142             0.0000000000
     15328       834  MEOH      H1A             2.1205000934       23.9660890951      -13.7245143569  MEOH      142             0.0000000000
     15329       834  MEOH      H1B             0.6513762420       23.8522335227      -14.7543811171  MEOH      142             0.0000000000
     15330       834  MEOH      H1C             2.2578531971       23.2846587178      -15.3816388829  MEOH      142             0.0000000000
     15331       834  MEOH      LP1A            1.6084356784       21.8223723591      -14.0464439896  MEOH      142             0.0000000000
     15332       834  MEOH      LP1B            1.0491074012       22.0400349374      -13.7775128085  MEOH      142             0.0000000000
     15333       835  MEOH      C1             26.7364533449       23.6493724665      -19.3847421864  MEOH      143             0.0000000000
     15334       835  MEOH      DC1            26.7444688110       23.6520333516      -19.3865629078  MEOH      143             0.0000000000
     15335       835  MEOH      O1             25.4236585729       23.4131817075      -18.8803575752  MEOH      143             0.0000000000
     15336       835  MEOH      DO1            25.4306502015       23.4093117317      -18.8891347843  MEOH      143             0.0000000000
     15337       835  MEOH      HO1            25.1145071862       22.5646222684      -19.2342958443  MEOH      143             0.0000000000
     15338       835  MEOH      HO2            25.4852156612       23.5409371449      -17.9207799213  MEOH      143             0.0000000000
     15339       835  MEOH      H1A            27.0860779762       24.6523843944      -19.0590879344  MEOH      143             0.0000000000
     15340       835  MEOH      H1B            26.7309498950       23.6120273559      -20.4951007124  MEOH      143             0.0000000000
     15341       835  MEOH      H1C            27.4295848266       22.8798299203      -18.9826302384  MEOH      143             0.0000000000
     15342       835  MEOH      LP1A           25.4415535696       23.2431930879      -18.5749338723  MEOH      143             0.0000000000
     15343       835  MEOH      LP1B           25.1857744380       23.5534591848      -19.0953770341  MEOH      143             0.0000000000
     15344       836  MEOH      C1              0.3070892796      -18.7262754948        1.4078569588  MEOH      144             0.0000000000
     15345       836  MEOH      DC1             0.2991546429      -18.7214390659        1.4017016963  MEOH      144             0.0000000000
     15346       836  MEOH      O1             -0.0324084529      -17.8002519339        0.3714077749  MEOH      144             0.0000000000
     15347       836  MEOH      DO1            -0.0339463782      -17.7942101152        0.3613000314  MEOH      144             0.0000000000
     15348       836  MEOH      HO1             0.0201843000      -16.9177565091        0.7705766959  MEOH      144             0.0000000000
     15349       836  MEOH      HO2             0.5315271198      -18.0331015645       -0.3826861984  MEOH      144             0.0000000000
     15350       836  MEOH      H1A             0.2039510691      -19.7686735123        1.0376004485  MEOH      144             0.0000000000
     15351       836  MEOH      H1B            -0.3684901579      -18.5805100077        2.2777223774  MEOH      144             0.0000000000
     15352       836  MEOH      H1C             1.3570565276      -18.5669864688        1.7342260537  MEOH      144             0.0000000000
     15353       836  MEOH      LP1A            0.2552595828      -17.7071532538        0.1951133138  MEOH      144             0.0000000000
     15354       836  MEOH      LP1B           -0.3783227254      -17.7471164141        0.3669431841  MEOH      144             0.0000000000
     15355       837  MEOH      C1              0.2640147887       35.0270010552       10.5049985120  MEOH      145             0.0000000000
     15356       837  MEOH      DC1             0.2489500551       35.0353497960       10.5051934246  MEOH      145             0.0000000000
     15357       837  MEOH      O1              0.5883160574       34.3445746565        9.2972811655  MEOH      145             0.0000000000
     15358       837  MEOH      DO1             0.5780276913       34.3522907281        9.3010907320  MEOH      145             0.0000000000
     15359       837  MEOH      HO1             1.2087695860       33.6329702686        9.5198943163  MEOH      145             0.0000000000
     15360       837  MEOH      HO2            -0.2576505414       34.1372314922        8.8703744708  MEOH      145             0.0000000000
     15361       837  MEOH      H1A            -0.4516105103       35.8399736194       10.2574565095  MEOH      145             0.0000000000
     15362       837  MEOH      H1B             1.1745149300       35.4680099815       10.9641516677  MEOH      145             0.0000000000
     15363       837  MEOH      H1C            -0.2287423115       34.3367356369       11.2226649334  MEOH      145             0.0000000000
     15364       837  MEOH      LP1A            0.3596325429       34.0856681112        9.2409673040  MEOH      145             0.0000000000
     15365       837  MEOH      LP1B            0.8646264488       34.4958844301        9.1447756900  MEOH      145             0.0000000000
     15366       838  MEOH      C1             32.3898992124       19.5995725904       35.3215161046  MEOH      146             0.0000000000
     15367       838  MEOH      DC1            32.3843740127       19.5796255203       35.3117437831  MEOH      146             0.0000000000
     15368       838  MEOH      O1             33.0602673868       20.4006443841       36.2957258737  MEOH      146             0.0000000000
     15369       838  MEOH      DO1            33.0625526928       20.3812729140       36.2886959300  MEOH      146             0.0000000000
     15370       838  MEOH      HO1            32.8773237709       21.3379060571       36.1255136783  MEOH      146             0.0000000000
     15371       838  MEOH      HO2            32.8651176209       20.0005193453       37.1575359004  MEOH      146             0.0000000000
     15372       838  MEOH      H1A            32.7006523134       18.5396800736       35.4414384266  MEOH      146             0.0000000000
     15373       838  MEOH      H1B            32.6589613264       19.9376493921       34.2979778030  MEOH      146             0.0000000000
     15374       838  MEOH      H1C            31.2906183642       19.6902262666       35.4544992939  MEOH      146             0.0000000000
     15375       838  MEOH      LP1A           32.8543253826       20.4468923217       36.5749193893  MEOH      146             0.0000000000
     15376       838  MEOH      LP1B           33.3827775282       20.4791806135       36.1847336696  MEOH      146             0.0000000000
     15377       839  MEOH      C1            -35.2987432345       30.6633375136        7.7633591155  MEOH      147             0.0000000000
     15378       839  MEOH      DC1           -35.2955986753       30.6560597074        7.7484130547  MEOH      147             0.0000000000
     15379       839  MEOH      O1            -36.6779297255       30.6731172311        8.1306538376  MEOH      147             0.0000000000
     15380       839  MEOH      DO1           -36.6743012247       30.6680408452        8.1251862343  MEOH      147             0.0000000000
     15381       839  MEOH      HO1           -37.1506957142       30.0391991119        7.5689242409  MEOH      147             0.0000000000
     15382       839  MEOH      HO2           -36.6937799541       30.5660338385        9.0945946642  MEOH      147             0.0000000000
     15383       839  MEOH      H1A           -34.7702216303       31.4510907802        8.3416589558  MEOH      147             0.0000000000
     15384       839  MEOH      H1B           -35.1815729416       30.8905696990        6.6821756638  MEOH      147             0.0000000000
     15385       839  MEOH      H1C           -34.8456624831       29.6788274040        8.0078559012  MEOH      147             0.0000000000
     15386       839  MEOH      LP1A          -36.7355648418       30.4403588688        8.3856082221  MEOH      147             0.0000000000
     15387       839  MEOH      LP1B          -36.8494531183       30.9154540407        7.9453093032  MEOH      147             0.0000000000
     15388       840  MEOH      C1            -18.0119843758      -33.9805522044       11.7163096121  MEOH      148             0.0000000000
     15389       840  MEOH      DC1           -18.0053383507      -33.9869669664       11.7005194121  MEOH      148             0.0000000000
     15390       840  MEOH      O1            -17.8253030955      -35.3400310988       12.1231732946  MEOH      148             0.0000000000
     15391       840  MEOH      DO1           -17.8177455196      -35.3464895783       12.1113012042  MEOH      148             0.0000000000
     15392       840  MEOH      HO1           -18.3622437069      -35.9040501301       11.5448331592  MEOH      148             0.0000000000
     15393       840  MEOH      HO2           -16.8709633258      -35.4738707641       12.2337289304  MEOH      148             0.0000000000
     15394       840  MEOH      H1A           -17.4962289019      -33.3119935154       12.4383529422  MEOH      148             0.0000000000
     15395       840  MEOH      H1B           -19.0923071259      -33.7212775573       11.7169536583  MEOH      148             0.0000000000
     15396       840  MEOH      H1C           -17.5761399446      -33.8105469057       10.7086098399  MEOH      148             0.0000000000
     15397       840  MEOH      LP1A          -17.5530008928      -35.4795370009       11.9532038453  MEOH      148             0.0000000000
     15398       840  MEOH      LP1B          -18.0592040497      -35.4244690675       12.3694669670  MEOH      148             0.0000000000
     15399       841  MEOH      C1             16.6870378662      -30.0891511618        0.8472992675  MEOH      149             0.0000000000
     15400       841  MEOH      DC1            16.6956797866      -30.0921704732        0.8335730647  MEOH      149             0.0000000000
     15401       841  MEOH      O1             17.8832015520      -29.3763510936        0.5230573237  MEOH      149             0.0000000000
     15402       841  MEOH      DO1            17.8883429746      -29.3762451255        0.5066901492  MEOH      149             0.0000000000
     15403       841  MEOH      HO1            18.5454642649      -30.0278008500        0.2439134289  MEOH      149             0.0000000000
     15404       841  MEOH      HO2            17.6178648724      -28.6429062422       -0.0536185791  MEOH      149             0.0000000000
     15405       841  MEOH      H1A            15.9500995672      -29.3775199403        1.2772108259  MEOH      149             0.0000000000
     15406       841  MEOH      H1B            16.8883149957      -30.8827874903        1.5982652432  MEOH      149             0.0000000000
     15407       841  MEOH      H1C            16.2366696851      -30.5370918934       -0.0642042173  MEOH      149             0.0000000000
     15408       841  MEOH      LP1A           17.8787441063      -29.2820820981        0.1860209938  MEOH      149             0.0000000000
     15409       841  MEOH      LP1B           18.0827845858      -29.3413583518        0.8084379829  MEOH      149             0.0000000000
     15410       842  MEOH      C1              0.8142241500       26.1083284929       13.4242481649  MEOH      150             0.0000000000
     15411       842  MEOH      DC1             0.8005635793       26.0923613505       13.4403499845  MEOH      150             0.0000000000
     15412       842  MEOH      O1              0.4029197499       24.9444621582       14.1407996182  MEOH      150             0.0000000000
     15413       842  MEOH      DO1             0.3928323305       24.9290897832       14.1551486308  MEOH      150             0.0000000000
     15414       842  MEOH      HO1            -0.5196437332       24.7960167261       13.8805294245  MEOH      150             0.0000000000
     15415       842  MEOH      HO2             1.0757623403       24.2684368770       13.9642417874  MEOH      150             0.0000000000
     15416       842  MEOH      H1A             1.8560649618       26.3830682700       13.6951850181  MEOH      150             0.0000000000
     15417       842  MEOH      H1B             0.1466619824       26.9617092381       13.6700591823  MEOH      150             0.0000000000
     15418       842  MEOH      H1C             0.7793885610       25.9116490343       12.3313507892  MEOH      150             0.0000000000
     15419       842  MEOH      LP1A            0.4744255421       24.6573170871       13.9538915398  MEOH      150             0.0000000000
     15420       842  MEOH      LP1B            0.2728369627       25.0356397238       14.4526731823  MEOH      150             0.0000000000
     15421       843  MEOH      C1             28.6396197490        3.2012583217       32.7829425430  MEOH      151             0.0000000000
     15422       843  MEOH      DC1            28.6488054753        3.2011261460       32.7797965323  MEOH      151             0.0000000000
     15423       843  MEOH      O1             29.0638743433        2.1936192855       31.8726032187  MEOH      151             0.0000000000
     15424       843  MEOH      DO1            29.0751480110        2.1980855203       31.8655470288  MEOH      151             0.0000000000
     15425       843  MEOH      HO1            28.3452213089        1.5455161080       31.8062700591  MEOH      151             0.0000000000
     15426       843  MEOH      HO2            29.4076911724        2.6540586295       31.0911394649  MEOH      151             0.0000000000
     15427       843  MEOH      H1A            29.5029728959        3.8456385733       33.0544502518  MEOH      151             0.0000000000
     15428       843  MEOH      H1B            28.2267876288        2.7212551765       33.6958979752  MEOH      151             0.0000000000
     15429       843  MEOH      H1C            27.8346014284        3.8175989021       32.3286400067  MEOH      151             0.0000000000
     15430       843  MEOH      LP1A           28.9740416268        2.2818207436       31.5460292059  MEOH      151             0.0000000000
     15431       843  MEOH      LP1B           29.2350672215        1.9413597729       32.0445280185  MEOH      151             0.0000000000
     15432       844  MEOH      C1            -16.4527467696        1.0142260642       -5.2418208973  MEOH      152             0.0000000000
     15433       844  MEOH      DC1           -16.4702752704        1.0172415309       -5.2365161303  MEOH      152             0.0000000000
     15434       844  MEOH      O1            -16.1859916283       -0.3325273911       -5.6090595103  MEOH      152             0.0000000000
     15435       844  MEOH      DO1           -16.2009895072       -0.3420708427       -5.5932785205  MEOH      152             0.0000000000
     15436       844  MEOH      HO1           -16.8780722759       -0.5825359169       -6.2410564367  MEOH      152             0.0000000000
     15437       844  MEOH      HO2           -15.2742134318       -0.3077993327       -5.9391338105  MEOH      152             0.0000000000
     15438       844  MEOH      H1A           -15.5943069925        1.4260534860       -4.6692824062  MEOH      152             0.0000000000
     15439       844  MEOH      H1B           -17.3692264353        1.0693787495       -4.6162457973  MEOH      152             0.0000000000
     15440       844  MEOH      H1C           -16.5859598343        1.6280246978       -6.1582413889  MEOH      152             0.0000000000
     15441       844  MEOH      LP1A          -15.9703413124       -0.3410000290       -5.8846010783  MEOH      152             0.0000000000
     15442       844  MEOH      LP1B          -16.3475502370       -0.5510058755       -5.3884558663  MEOH      152             0.0000000000
     15443       845  MEOH      C1            -11.3756375484      -33.3404379781      -35.2381991845  MEOH      153             0.0000000000
     15444       845  MEOH      DC1           -11.3915902060      -33.3417094582      -35.2346200162  MEOH      153             0.0000000000
     15445       845  MEOH      O1            -12.7049875817      -33.1034031781      -35.6848791792  MEOH      153             0.0000000000
     15446       845  MEOH      DO1           -12.7236926118      -33.1256927952      -35.6747057533  MEOH      153             0.0000000000
     15447       845  MEOH      HO1           -12.6443659426      -32.4303702926      -36.3807611753  MEOH      153             0.0000000000
     15448       845  MEOH      HO2           -13.1066283615      -33.9714260537      -35.8464990155  MEOH      153             0.0000000000
     15449       845  MEOH      H1A           -11.4101483893      -33.8112977231      -34.2325048453  MEOH      153             0.0000000000
     15450       845  MEOH      H1B           -10.8142851595      -32.3870936437      -35.1365179382  MEOH      153             0.0000000000
     15451       845  MEOH      H1C           -10.8456091316      -33.9984344564      -35.9596085772  MEOH      153             0.0000000000
     15452       845  MEOH      LP1A          -12.7851126486      -33.3239151828      -35.9445990849  MEOH      153             0.0000000000
     15453       845  MEOH      LP1B          -12.8525418052      -32.8507309474      -35.4928258143  MEOH      153             0.0000000000
     15454       846  MEOH      C1             35.7819104155      -26.0437169058       32.0929223874  MEOH      154             0.0000000000
     15455       846  MEOH      DC1            35.7740205496      -26.0415003895       32.0994016033  MEOH      154             0.0000000000
     15456       846  MEOH      O1             34.5729837496      -26.2014479145       31.3413443943  MEOH      154             0.0000000000
     15457       846  MEOH      DO1            34.5641230774      -26.1970557847       31.3489650418  MEOH      154             0.0000000000
     15458       846  MEOH      HO1            34.7981021087      -26.6960000543       30.5378271852  MEOH      154             0.0000000000
     15459       846  MEOH      HO2            33.9100955798      -26.5415961848       31.9624550364  MEOH      154             0.0000000000
     15460       846  MEOH      H1A            35.5903999007      -25.3942253505       32.9737205726  MEOH      154             0.0000000000
     15461       846  MEOH      H1B            36.5648179168      -25.5695018823       31.4632423449  MEOH      154             0.0000000000
     15462       846  MEOH      H1C            36.1515567437      -27.0324602598       32.4394323779  MEOH      154             0.0000000000
     15463       846  MEOH      LP1A           34.4083686070      -26.4943158112       31.4394782309  MEOH      154             0.0000000000
     15464       846  MEOH      LP1B           34.5297315762      -25.9292115509       31.1256672934  MEOH      154             0.0000000000
     15465       847  MEOH      C1             25.5676672912       12.1749105675      -20.9188983905  MEOH      155             0.0000000000
     15466       847  MEOH      DC1            25.5798634844       12.1828563459      -20.9152098531  MEOH      155             0.0000000000
     15467       847  MEOH      O1             26.6361330691       12.9733908436      -21.4267251428  MEOH      155             0.0000000000
     15468       847  MEOH      DO1            26.6433520276       12.9862440854      -21.4067855004  MEOH      155             0.0000000000
     15469       847  MEOH      HO1            27.3957841177       12.3829502247      -21.5500546193  MEOH      155             0.0000000000
     15470       847  MEOH      HO2            26.2643313218       13.4045497728      -22.2120692967  MEOH      155             0.0000000000
     15471       847  MEOH      H1A            24.6361623290       12.7737176942      -20.8291792114  MEOH      155             0.0000000000
     15472       847  MEOH      H1B            25.8278932482       11.7532538524      -19.9245096003  MEOH      155             0.0000000000
     15473       847  MEOH      H1C            25.3766700492       11.3476235390      -21.6354437330  MEOH      155             0.0000000000
     15474       847  MEOH      LP1A           26.6234656721       12.9819296534      -21.7763915921  MEOH      155             0.0000000000
     15475       847  MEOH      LP1B           26.8212454071       13.1080491253      -21.1619600214  MEOH      155             0.0000000000
     15476       848  MEOH      C1            -20.4764673555      -30.5391237969       34.9745722527  MEOH      156             0.0000000000
     15477       848  MEOH      DC1           -20.4721805618      -30.5484448012       34.9870072506  MEOH      156             0.0000000000
     15478       848  MEOH      O1            -21.4505597004      -31.5835129753       35.0312736326  MEOH      156             0.0000000000
     15479       848  MEOH      DO1           -21.4394081148      -31.6030108824       35.0526608869  MEOH      156             0.0000000000
     15480       848  MEOH      HO1           -21.7940147250      -31.6608224187       34.1274141872  MEOH      156             0.0000000000
     15481       848  MEOH      HO2           -21.0387090937      -32.3269806166       35.4987508450  MEOH      156             0.0000000000
     15482       848  MEOH      H1A           -20.2453500431      -30.1877217431       36.0028827041  MEOH      156             0.0000000000
     15483       848  MEOH      H1B           -20.8666498434      -29.6858681037       34.3795652361  MEOH      156             0.0000000000
     15484       848  MEOH      H1C           -19.5426013296      -30.8919554775       34.4870016921  MEOH      156             0.0000000000
     15485       848  MEOH      LP1A          -21.2979762639      -31.8928682278       34.9719640835  MEOH      156             0.0000000000
     15486       848  MEOH      LP1B          -21.7642276384      -31.4504355166       35.1112912225  MEOH      156             0.0000000000
     15487       849  MEOH      C1             17.9483814790       -4.5396013335       -2.9605393349  MEOH      157             0.0000000000
     15488       849  MEOH      DC1            17.9529084949       -4.5392234038       -2.9584569918  MEOH      157             0.0000000000
     15489       849  MEOH      O1             16.7065622024       -4.9919428761       -3.4955394584  MEOH      157             0.0000000000
     15490       849  MEOH      DO1            16.7150447549       -4.9998813749       -3.4961936798  MEOH      157             0.0000000000
     15491       849  MEOH      HO1            16.0831882783       -4.2489509718       -3.4791693388  MEOH      157             0.0000000000
     15492       849  MEOH      HO2            16.9213998789       -5.4382307462       -4.3295489972  MEOH      157             0.0000000000
     15493       849  MEOH      H1A            18.6241994012       -5.4111133233       -2.8261593222  MEOH      157             0.0000000000
     15494       849  MEOH      H1B            17.8057544903       -4.0678779752       -1.9648206917  MEOH      157             0.0000000000
     15495       849  MEOH      H1C            18.4116203430       -3.7998461273       -3.6479205904  MEOH      157             0.0000000000
     15496       849  MEOH      LP1A           16.7021221230       -4.9466385881       -3.8425665570  MEOH      157             0.0000000000
     15497       849  MEOH      LP1B           16.5069801745       -5.1236407882       -3.2399564501  MEOH      157             0.0000000000
     15498       850  MEOH      C1              9.9227685384       25.7037959209      -10.3049719927  MEOH      158             0.0000000000
     15499       850  MEOH      DC1             9.9388186896       25.7031622455      -10.3167620362  MEOH      158             0.0000000000
     15500       850  MEOH      O1             11.3518367039       25.7308437254      -10.2227787557  MEOH      158             0.0000000000
     15501       850  MEOH      DO1            11.3649179539       25.7266915177      -10.2271394834  MEOH      158             0.0000000000
     15502       850  MEOH      HO1            11.6644560915       26.2436444649      -10.9844903292  MEOH      158             0.0000000000
     15503       850  MEOH      HO2            11.5523371017       26.0450360462       -9.3272438451  MEOH      158             0.0000000000
     15504       850  MEOH      H1A             9.5027946457       25.1318615339       -9.4500837030  MEOH      158             0.0000000000
     15505       850  MEOH      H1B             9.5942369849       25.2139414406      -11.2464764309  MEOH      158             0.0000000000
     15506       850  MEOH      H1C             9.5165529341       26.7368870726      -10.2598881249  MEOH      158             0.0000000000
     15507       850  MEOH      LP1A           11.4555982692       26.0053656850      -10.0320663247  MEOH      158             0.0000000000
     15508       850  MEOH      LP1B           11.4866177026       25.4545749928      -10.3901396525  MEOH      158             0.0000000000
     15509       851  MEOH      C1            -31.4496092584      -31.3564107461       12.2624176678  MEOH      159             0.0000000000
     15510       851  MEOH      DC1           -31.4405786012      -31.3641108307       12.2619904757  MEOH      159             0.0000000000
     15511       851  MEOH      O1            -32.6827134753      -31.7161848879       12.8873396839  MEOH      159             0.0000000000
     15512       851  MEOH      DO1           -32.6756285831      -31.7245125096       12.8967788149  MEOH      159             0.0000000000
     15513       851  MEOH      HO1           -32.8409282990      -32.6581366464       12.7182392571  MEOH      159             0.0000000000
     15514       851  MEOH      HO2           -32.6571733183      -31.3453839210       13.7833052777  MEOH      159             0.0000000000
     15515       851  MEOH      H1A           -31.3650950225      -30.2491233720       12.2293568820  MEOH      159             0.0000000000
     15516       851  MEOH      H1B           -31.4217096526      -31.7458123929       11.2222691354  MEOH      159             0.0000000000
     15517       851  MEOH      H1C           -30.5955823906      -31.7656267115       12.8433663780  MEOH      159             0.0000000000
     15518       851  MEOH      LP1A          -32.6245974991      -31.8176519728       13.2172290047  MEOH      159             0.0000000000
     15519       851  MEOH      LP1B          -32.9487528272      -31.6642345307       12.6659255388  MEOH      159             0.0000000000
     15520       852  MEOH      C1             -1.4323958959       12.8661837872        3.0936109076  MEOH      160             0.0000000000
     15521       852  MEOH      DC1            -1.4283614679       12.8712138867        3.0972597964  MEOH      160             0.0000000000
     15522       852  MEOH      O1             -1.2123815192       13.8404376492        2.0674295527  MEOH      160             0.0000000000
     15523       852  MEOH      DO1            -1.1977661326       13.8513332463        2.0745039700  MEOH      160             0.0000000000
     15524       852  MEOH      HO1            -1.8372212329       14.5708397093        2.1977681997  MEOH      160             0.0000000000
     15525       852  MEOH      HO2            -0.2536611207       13.9734342582        2.0036557287  MEOH      160             0.0000000000
     15526       852  MEOH      H1A            -0.8964826934       11.9287617324        2.8321574104  MEOH      160             0.0000000000
     15527       852  MEOH      H1B            -2.5154822146       12.6327081621        3.1756728284  MEOH      160             0.0000000000
     15528       852  MEOH      H1C            -1.0579190416       13.2404668231        4.0703402950  MEOH      160             0.0000000000
     15529       852  MEOH      LP1A           -0.9710046273       14.0715240995        2.1715268561  MEOH      160             0.0000000000
     15530       852  MEOH      LP1B           -1.4085877393       13.7657316536        1.7873900316  MEOH      160             0.0000000000
     15531       853  MEOH      C1             -7.0508725045       36.0088959036       35.9167274855  MEOH      161             0.0000000000
     15532       853  MEOH      DC1            -7.0477286028       36.0115588408       35.9210487070  MEOH      161             0.0000000000
     15533       853  MEOH      O1             -8.3443914653       36.1987774466       35.3610542831  MEOH      161             0.0000000000
     15534       853  MEOH      DO1            -8.3425911759       36.1965084707       35.3686209621  MEOH      161             0.0000000000
     15535       853  MEOH      HO1            -8.4054326563       35.6255331211       34.5809485739  MEOH      161             0.0000000000
     15536       853  MEOH      HO2            -8.9602362257       36.0854562902       36.1018602945  MEOH      161             0.0000000000
     15537       853  MEOH      H1A            -6.9310720260       36.7514883837       36.7343614223  MEOH      161             0.0000000000
     15538       853  MEOH      H1B            -6.2500635119       36.1812467832       35.1661802641  MEOH      161             0.0000000000
     15539       853  MEOH      H1C            -6.9633256338       34.9744376224       36.3123947853  MEOH      161             0.0000000000
     15540       853  MEOH      LP1A           -8.5710909393       35.9751688086       35.5063351335  MEOH      161             0.0000000000
     15541       853  MEOH      LP1B           -8.3381402452       36.4619531063       35.1304041273  MEOH      161             0.0000000000
     15542       854  MEOH      C1             32.1887849702       29.3287691598      -32.7136803506  MEOH      162             0.0000000000
     15543       854  MEOH      DC1            32.1784009997       29.3288745277      -32.7065692088  MEOH      162             0.0000000000
     15544       854  MEOH      O1             30.8828697549       28.8943230049      -33.0632863135  MEOH      162             0.0000000000
     15545       854  MEOH      DO1            30.8721250139       28.8982105092      -33.0598842777  MEOH      162             0.0000000000
     15546       854  MEOH      HO1            30.7005309364       29.2918952596      -33.9290743116  MEOH      162             0.0000000000
     15547       854  MEOH      HO2            30.9218306999       27.9273127697      -32.9979162079  MEOH      162             0.0000000000
     15548       854  MEOH      H1A            32.5135757081       28.8689891654      -31.7558524259  MEOH      162             0.0000000000
     15549       854  MEOH      H1B            32.1970062383       30.4347753597      -32.6087818373  MEOH      162             0.0000000000
     15550       854  MEOH      H1C            32.8942538622       29.0244158604      -33.5161787694  MEOH      162             0.0000000000
     15551       854  MEOH      LP1A           30.9000606330       28.5904435070      -33.2360917662  MEOH      162             0.0000000000
     15552       854  MEOH      LP1B           30.6448103017       29.1190970803      -32.9395757167  MEOH      162             0.0000000000
     15553       855  MEOH      C1            -21.5500686143       21.0526768050        4.5907311817  MEOH      163             0.0000000000
     15554       855  MEOH      DC1           -21.5688219430       21.0487443674        4.5953398174  MEOH      163             0.0000000000
     15555       855  MEOH      O1            -20.9897387960       21.4773435015        3.3511932218  MEOH      163             0.0000000000
     15556       855  MEOH      DO1           -21.0074831599       21.4731167961        3.3500321892  MEOH      163             0.0000000000
     15557       855  MEOH      HO1           -20.3083747143       20.8354326478        3.0970408184  MEOH      163             0.0000000000
     15558       855  MEOH      HO2           -21.7352566950       21.6980342737        2.7711943881  MEOH      163             0.0000000000
     15559       855  MEOH      H1A           -22.1209567025       21.8913447318        5.0435489139  MEOH      163             0.0000000000
     15560       855  MEOH      H1B           -20.7409958081       20.7525771492        5.2904899916  MEOH      163             0.0000000000
     15561       855  MEOH      H1C           -22.2337941991       20.1943775971        4.4170567876  MEOH      163             0.0000000000
     15562       855  MEOH      LP1A          -21.1720410198       21.3420469236        3.0848086592  MEOH      163             0.0000000000
     15563       855  MEOH      LP1B          -20.7203161370       21.6930711497        3.4092708645  MEOH      163             0.0000000000
     15564       856  MEOH      C1            -13.9076047194       -6.7037095371        1.1996640530  MEOH      164             0.0000000000
     15565       856  MEOH      DC1           -13.9061649317       -6.7180977547        1.1913582830  MEOH      164             0.0000000000
     15566       856  MEOH      O1            -14.4414252577       -5.6957016183        2.0580038138  MEOH      164             0.0000000000
     15567       856  MEOH      DO1           -14.4380450736       -5.7008770899        2.0463552994  MEOH      164             0.0000000000
     15568       856  MEOH      HO1           -14.1575707866       -5.8794947883        2.9671499571  MEOH      164             0.0000000000
     15569       856  MEOH      HO2           -14.2402008702       -4.8442116542        1.6392275161  MEOH      164             0.0000000000
     15570       856  MEOH      H1A           -14.3892548220       -6.6133356253        0.2025849506  MEOH      164             0.0000000000
     15571       856  MEOH      H1B           -14.1115864386       -7.7128714021        1.6171623034  MEOH      164             0.0000000000
     15572       856  MEOH      H1C           -12.8099784036       -6.5759804111        1.0846738739  MEOH      164             0.0000000000
     15573       856  MEOH      LP1A          -14.2193958667       -5.4259061650        2.0783351413  MEOH      164             0.0000000000
     15574       856  MEOH      LP1B          -14.7579818988       -5.7914024498        2.1726041795  MEOH      164             0.0000000000
     15575       857  MEOH      C1            -31.1938652724       31.1967181583      -12.4840349713  MEOH      165             0.0000000000
     15576       857  MEOH      DC1           -31.2002811968       31.1981605898      -12.4816343112  MEOH      165             0.0000000000
     15577       857  MEOH      O1            -32.3992816146       30.6068269051      -12.9721127235  MEOH      165             0.0000000000
     15578       857  MEOH      DO1           -32.3976170330       30.6080533566      -12.9688993959  MEOH      165             0.0000000000
     15579       857  MEOH      HO1           -32.8201661005       30.0949973547      -12.2637436383  MEOH      165             0.0000000000
     15580       857  MEOH      HO2           -32.8790034000       31.3020506104      -13.4490099964  MEOH      165             0.0000000000
     15581       857  MEOH      H1A           -30.6194454002       31.6082542034      -13.3413569030  MEOH      165             0.0000000000
     15582       857  MEOH      H1B           -30.5683178834       30.4312526111      -11.9770103562  MEOH      165             0.0000000000
     15583       857  MEOH      H1C           -31.4263734189       32.0208246251      -11.7761440938  MEOH      165             0.0000000000
     15584       857  MEOH      LP1A          -32.6676106334       30.8266156451      -12.9252891456  MEOH      165             0.0000000000
     15585       857  MEOH      LP1B          -32.3312024550       30.2928837822      -13.1110549547  MEOH      165             0.0000000000
     15586       858  MEOH      C1             -0.6237694654       16.7236411386      -31.9765702734  MEOH      166             0.0000000000
     15587       858  MEOH      DC1            -0.6182704317       16.7296983596      -31.9832350561  MEOH      166             0.0000000000
     15588       858  MEOH      O1             -1.1555412712       15.4216906497      -32.2090059144  MEOH      166             0.0000000000
     15589       858  MEOH      DO1            -1.1633159003       15.4396029999      -32.2130369254  MEOH      166             0.0000000000
     15590       858  MEOH      HO1            -0.6285770588       14.9651778523      -32.8833980737  MEOH      166             0.0000000000
     15591       858  MEOH      HO2            -1.2077466360       15.0178175349      -31.3286303646  MEOH      166             0.0000000000
     15592       858  MEOH      H1A            -1.1625645056       17.1923980919      -31.1255192624  MEOH      166             0.0000000000
     15593       858  MEOH      H1B            -0.7552201935       17.3579605638      -32.8791668467  MEOH      166             0.0000000000
     15594       858  MEOH      H1C             0.4562897043       16.6673800011      -31.7223501427  MEOH      166             0.0000000000
     15595       858  MEOH      LP1A           -1.0090345354       15.1916317939      -31.9896689608  MEOH      166             0.0000000000
     15596       858  MEOH      LP1B           -1.3995476355       15.4350250303      -32.4595714517  MEOH      166             0.0000000000
     15597       859  MEOH      C1            -14.4052427786       -7.8564823633       16.8388116524  MEOH      167             0.0000000000
     15598       859  MEOH      DC1           -14.4055718883       -7.9021599199       16.8387501595  MEOH      167             0.0000000000
     15599       859  MEOH      O1            -15.4156639036       -6.9318641929       17.2487017865  MEOH      167             0.0000000000
     15600       859  MEOH      DO1           -15.4182228420       -6.9756423323       17.2516156007  MEOH      167             0.0000000000
     15601       859  MEOH      HO1           -15.5414206055       -6.1795315020       16.6494682971  MEOH      167             0.0000000000
     15602       859  MEOH      HO2           -15.6293743870       -7.0025245309       18.1922244126  MEOH      167             0.0000000000
     15603       859  MEOH      H1A           -13.6233618948       -7.9499755157       17.6225477786  MEOH      167             0.0000000000
     15604       859  MEOH      H1B           -13.9275631939       -7.5125061870       15.8965677323  MEOH      167             0.0000000000
     15605       859  MEOH      H1C           -14.8978734607       -8.8379296209       16.6702966929  MEOH      167             0.0000000000
     15606       859  MEOH      LP1A          -15.7262148980       -7.0289815206       17.1197587583  MEOH      167             0.0000000000
     15607       859  MEOH      LP1B          -15.2763985947       -6.6863005476       17.4555922645  MEOH      167             0.0000000000
     15608       860  MEOH      C1              9.3209547731      -19.9459629160       19.4900707904  MEOH      168             0.0000000000
     15609       860  MEOH      DC1             9.3178318558      -19.9527610440       19.4822376023  MEOH      168             0.0000000000
     15610       860  MEOH      O1             10.6510051943      -19.5695838851       19.8334430692  MEOH      168             0.0000000000
     15611       860  MEOH      DO1            10.6547619181      -19.5797775254       19.8249012783  MEOH      168             0.0000000000
     15612       860  MEOH      HO1            11.1172508000      -19.3338527737       19.0161635087  MEOH      168             0.0000000000
     15613       860  MEOH      HO2            10.5541434292      -18.8965868190       20.5252470496  MEOH      168             0.0000000000
     15614       860  MEOH      H1A             8.7757468388      -20.2390314987       20.4126650209  MEOH      168             0.0000000000
     15615       860  MEOH      H1B             9.3531029820      -20.8057025306       18.7871232183  MEOH      168             0.0000000000
     15616       860  MEOH      H1C             8.7914630802      -19.0906477299       19.0184825378  MEOH      168             0.0000000000
     15617       860  MEOH      LP1A           10.6643629541      -19.2267043978       19.9024012261  MEOH      168             0.0000000000
     15618       860  MEOH      LP1B           10.8589117042      -19.8511417946       19.8332794415  MEOH      168             0.0000000000
     15619       861  MEOH      C1             27.5601636018      -18.7643821505       28.7932439068  MEOH      169             0.0000000000
     15620       861  MEOH      DC1            27.5630948042      -18.7520011567       28.8074341341  MEOH      169             0.0000000000
     15621       861  MEOH      O1             26.8216179263      -19.7559976564       28.0883167623  MEOH      169             0.0000000000
     15622       861  MEOH      DO1            26.8152772980      -19.7487867345       28.0963185526  MEOH      169             0.0000000000
     15623       861  MEOH      HO1            25.9812236015      -19.3543498054       27.8175467781  MEOH      169             0.0000000000
     15624       861  MEOH      HO2            27.4289993923      -20.0948308784       27.4121660378  MEOH      169             0.0000000000
     15625       861  MEOH      H1A            28.5089427896      -19.2189134582       29.1503718152  MEOH      169             0.0000000000
     15626       861  MEOH      H1B            26.9794630394      -18.4006819985       29.6677895361  MEOH      169             0.0000000000
     15627       861  MEOH      H1C            27.7889358916      -17.9207031764       28.1075398680  MEOH      169             0.0000000000
     15628       861  MEOH      LP1A           26.9014884727      -19.7451761562       27.7477237634  MEOH      169             0.0000000000
     15629       861  MEOH      LP1B           26.6260679668      -19.9411151134       28.3119050904  MEOH      169             0.0000000000
     15630       862  MEOH      C1             22.4917542122      -30.0052581337       31.8245628534  MEOH      170             0.0000000000
     15631       862  MEOH      DC1            22.4988909178      -30.0022250849       31.8322400576  MEOH      170             0.0000000000
     15632       862  MEOH      O1             23.3507592921      -29.3440098145       30.8895884427  MEOH      170             0.0000000000
     15633       862  MEOH      DO1            23.3518799845      -29.3391320045       30.8896796086  MEOH      170             0.0000000000
     15634       862  MEOH      HO1            24.2537952175      -29.3986027036       31.2395109112  MEOH      170             0.0000000000
     15635       862  MEOH      HO2            23.1573327413      -29.7496604079       30.0299758751  MEOH      170             0.0000000000
     15636       862  MEOH      H1A            21.4467131913      -29.9930754336       31.4476519257  MEOH      170             0.0000000000
     15637       862  MEOH      H1B            22.5159101258      -29.4846495707       32.8057377695  MEOH      170             0.0000000000
     15638       862  MEOH      H1C            22.8117601751      -31.0620393604       31.9475694583  MEOH      170             0.0000000000
     15639       862  MEOH      LP1A           23.4627918250      -29.5714979135       30.6483460823  MEOH      170             0.0000000000
     15640       862  MEOH      LP1B           23.3733386937      -29.0036071431       30.9677945290  MEOH      170             0.0000000000
     15641       863  MEOH      C1              5.8829464892       13.2127426465      -36.4608233198  MEOH      171             0.0000000000
     15642       863  MEOH      DC1             5.8861097878       13.2440744479      -36.4578886683  MEOH      171             0.0000000000
     15643       863  MEOH      O1              5.8309281893       14.6338789086      -36.5291735518  MEOH      171             0.0000000000
     15644       863  MEOH      DO1             5.8339109401       14.6594756670      -36.5341992973  MEOH      171             0.0000000000
     15645       863  MEOH      HO1             6.4360315165       14.9283104533      -35.8305606193  MEOH      171             0.0000000000
     15646       863  MEOH      HO2             6.0141552692       14.8616819314      -37.4540700974  MEOH      171             0.0000000000
     15647       863  MEOH      H1A             5.1210340842       12.7550184706      -37.1273809448  MEOH      171             0.0000000000
     15648       863  MEOH      H1B             5.7123915700       12.8613332003      -35.4207543697  MEOH      171             0.0000000000
     15649       863  MEOH      H1C             6.8973050121       12.8736927823      -36.7615607079  MEOH      171             0.0000000000
     15650       863  MEOH      LP1A            6.0716288424       14.7517895934      -36.7542519071  MEOH      171             0.0000000000
     15651       863  MEOH      LP1B            5.5739861816       14.7542549880      -36.3242579492  MEOH      171             0.0000000000
     15652       864  MEOH      C1             27.4968907409       14.0750075493        6.4348510660  MEOH      172             0.0000000000
     15653       864  MEOH      DC1            27.4962510920       14.0825726526        6.4415949989  MEOH      172             0.0000000000
     15654       864  MEOH      O1             28.5165888539       14.8951318817        7.0014280721  MEOH      172             0.0000000000
     15655       864  MEOH      DO1            28.5158187793       14.9053466738        7.0068706606  MEOH      172             0.0000000000
     15656       864  MEOH      HO1            29.2582603828       14.8876521006        6.3763141655  MEOH      172             0.0000000000
     15657       864  MEOH      HO2            28.0891344557       15.7303139392        7.2477077301  MEOH      172             0.0000000000
     15658       864  MEOH      H1A            26.6805100771       13.9331255278        7.1749274836  MEOH      172             0.0000000000
     15659       864  MEOH      H1B            27.9167715723       13.0800481783        6.1739354878  MEOH      172             0.0000000000
     15660       864  MEOH      H1C            27.0852481612       14.5555755867        5.5216557153  MEOH      172             0.0000000000
     15661       864  MEOH      LP1A           28.4726804431       15.2274402641        6.9007146645  MEOH      172             0.0000000000
     15662       864  MEOH      LP1B           28.7249914407       14.7025835961        7.2063512761  MEOH      172             0.0000000000
     15663       865  MEOH      C1             33.1361475285      -12.8551029343       32.6302184585  MEOH      173             0.0000000000
     15664       865  MEOH      DC1            33.1306599520      -12.8764558687       32.6307132878  MEOH      173             0.0000000000
     15665       865  MEOH      O1             32.8020836578      -14.2416563968       32.6968574306  MEOH      173             0.0000000000
     15666       865  MEOH      DO1            32.7993721749      -14.2603436882       32.6834016425  MEOH      173             0.0000000000
     15667       865  MEOH      HO1            32.1470738361      -14.3899468714       31.9969488162  MEOH      173             0.0000000000
     15668       865  MEOH      HO2            33.6439100206      -14.7225318841       32.7282762399  MEOH      173             0.0000000000
     15669       865  MEOH      H1A            33.8237900058      -12.5972758145       33.4638814598  MEOH      173             0.0000000000
     15670       865  MEOH      H1B            32.2213071201      -12.2303494825       32.7143086135  MEOH      173             0.0000000000
     15671       865  MEOH      H1C            33.6640578936      -12.6222409057       31.6807939366  MEOH      173             0.0000000000
     15672       865  MEOH      LP1A           33.0196710625      -14.4270526265       32.4949070422  MEOH      173             0.0000000000
     15673       865  MEOH      LP1B           32.5357757257      -14.2900972173       32.9187438254  MEOH      173             0.0000000000
     15674       866  MEOH      C1            -27.6375810985       17.0681195799       19.1376263399  MEOH      174             0.0000000000
     15675       866  MEOH      DC1           -27.6334002117       17.0653952422       19.1409102651  MEOH      174             0.0000000000
     15676       866  MEOH      O1            -28.0589391737       18.3814953479       18.7647454058  MEOH      174             0.0000000000
     15677       866  MEOH      DO1           -28.0469598724       18.3827652878       18.7806739952  MEOH      174             0.0000000000
     15678       866  MEOH      HO1           -27.8479016272       18.5123463752       17.8270668028  MEOH      174             0.0000000000
     15679       866  MEOH      HO2           -28.9901101996       18.4251146197       19.0329204981  MEOH      174             0.0000000000
     15680       866  MEOH      H1A           -27.9429076800       16.8632577140       20.1860195365  MEOH      174             0.0000000000
     15681       866  MEOH      H1B           -26.5322626430       16.9834222012       19.0640160985  MEOH      174             0.0000000000
     15682       866  MEOH      H1C           -28.1100348544       16.3129662931       18.4736595014  MEOH      174             0.0000000000
     15683       866  MEOH      LP1A          -28.3914901622       18.3741226956       18.6558625146  MEOH      174             0.0000000000
     15684       866  MEOH      LP1B          -27.8007321830       18.6107741926       18.8218449797  MEOH      174             0.0000000000
     15685       867  MEOH      C1             15.3084485060       -9.7965677924       36.6196492300  MEOH      175             0.0000000000
     15686       867  MEOH      DC1            15.3049367807       -9.8062634291       36.6293488783  MEOH      175             0.0000000000
     15687       867  MEOH      O1             14.7645764983       -8.4867666868       36.4522509889  MEOH      175             0.0000000000
     15688       867  MEOH      DO1            14.7596885055       -8.4940408553       36.4608230600  MEOH      175             0.0000000000
     15689       867  MEOH      HO1            13.8802562280       -8.5520533866       36.0590394583  MEOH      175             0.0000000000
     15690       867  MEOH      HO2            14.9182175992       -8.0140403809       37.2852121236  MEOH      175             0.0000000000
     15691       867  MEOH      H1A            16.3783818087       -9.7146806324       36.9075002725  MEOH      175             0.0000000000
     15692       867  MEOH      H1B            15.2522464121      -10.3523988417       35.6593294031  MEOH      175             0.0000000000
     15693       867  MEOH      H1C            14.7544231459      -10.3410690148       37.4139384210  MEOH      175             0.0000000000
     15694       867  MEOH      LP1A           14.5913499528       -8.3912765263       36.7409968862  MEOH      175             0.0000000000
     15695       867  MEOH      LP1B           14.8561792982       -8.3581334000       36.1399011776  MEOH      175             0.0000000000
     15696       868  MEOH      C1             23.3315707881       13.2416919452       21.1319099210  MEOH      176             0.0000000000
     15697       868  MEOH      DC1            23.3325266053       13.2491809808       21.1198689341  MEOH      176             0.0000000000
     15698       868  MEOH      O1             22.1682118179       13.9109196995       20.6324907650  MEOH      176             0.0000000000
     15699       868  MEOH      DO1            22.1694797480       13.9260891206       20.6236151708  MEOH      176             0.0000000000
     15700       868  MEOH      HO1            21.4827670994       13.7965619756       21.3092387601  MEOH      176             0.0000000000
     15701       868  MEOH      HO2            22.4602292732       14.7962173315       20.3643976646  MEOH      176             0.0000000000
     15702       868  MEOH      H1A            24.1368510268       13.2447669940       20.3665111478  MEOH      176             0.0000000000
     15703       868  MEOH      H1B            23.0846720492       12.1902995724       21.3925554486  MEOH      176             0.0000000000
     15704       868  MEOH      H1C            23.7030387152       13.7540225346       22.0450637679  MEOH      176             0.0000000000
     15705       868  MEOH      LP1A           22.1713192847       14.2465384001       20.7317401050  MEOH      176             0.0000000000
     15706       868  MEOH      LP1B           21.9763718161       13.6901329405       20.4402653225  MEOH      176             0.0000000000
     15707       869  MEOH      C1             -5.3703612754       -2.6677908613       25.7312933534  MEOH      177             0.0000000000
     15708       869  MEOH      DC1            -5.3678866091       -2.6672291362       25.7328015555  MEOH      177             0.0000000000
     15709       869  MEOH      O1             -5.9880596455       -3.6742412351       26.5397858551  MEOH      177             0.0000000000
     15710       869  MEOH      DO1            -5.9908572818       -3.6760734099       26.5428160714  MEOH      177             0.0000000000
     15711       869  MEOH      HO1            -6.0983210338       -4.4624725326       25.9853186799  MEOH      177             0.0000000000
     15712       869  MEOH      HO2            -5.4683035160       -3.7192830844       27.3575418075  MEOH      177             0.0000000000
     15713       869  MEOH      H1A            -5.2443499875       -1.7412839474       26.3313159312  MEOH      177             0.0000000000
     15714       869  MEOH      H1B            -5.9959155983       -2.4349379016       24.8431591912  MEOH      177             0.0000000000
     15715       869  MEOH      H1C            -4.3744740011       -3.0155034483       25.3825448845  MEOH      177             0.0000000000
     15716       869  MEOH      LP1A           -5.7432243662       -3.8618992038       26.7051344953  MEOH      177             0.0000000000
     15717       869  MEOH      LP1B           -6.3364070521       -3.6476970072       26.5185847164  MEOH      177             0.0000000000
     15718       870  MEOH      C1            -10.9522105745       18.1809974906      -19.8406499964  MEOH      178             0.0000000000
     15719       870  MEOH      DC1           -10.9557456898       18.1788208788      -19.8322508135  MEOH      178             0.0000000000
     15720       870  MEOH      O1             -9.6492572797       17.7619141639      -20.2528406865  MEOH      178             0.0000000000
     15721       870  MEOH      DO1            -9.6492068101       17.7617534476      -20.2536693160  MEOH      178             0.0000000000
     15722       870  MEOH      HO1            -9.0027212988       18.2120198475      -19.6868936050  MEOH      178             0.0000000000
     15723       870  MEOH      HO2            -9.6771564638       16.7941596296      -20.3126135715  MEOH      178             0.0000000000
     15724       870  MEOH      H1A           -11.6993385897       17.8152163656      -20.5770771127  MEOH      178             0.0000000000
     15725       870  MEOH      H1B           -11.0041504188       19.2902350435      -19.8057887727  MEOH      178             0.0000000000
     15726       870  MEOH      H1C           -11.1910924413       17.7743770777      -18.8347094941  MEOH      178             0.0000000000
     15727       870  MEOH      LP1A           -9.5553455094       17.4736255617      -20.0779971528  MEOH      178             0.0000000000
     15728       870  MEOH      LP1B           -9.5296352503       17.9733484987      -20.5048051526  MEOH      178             0.0000000000
     15729       871  MEOH      C1              1.4232451774      -10.5174075001      -15.4799114115  MEOH      179             0.0000000000
     15730       871  MEOH      DC1             1.4286945702      -10.5059528557      -15.4769027659  MEOH      179             0.0000000000
     15731       871  MEOH      O1              1.0169493826       -9.3270581203      -14.7985180799  MEOH      179             0.0000000000
     15732       871  MEOH      DO1             1.0147326485       -9.3226273863      -14.7948246088  MEOH      179             0.0000000000
     15733       871  MEOH      HO1             0.1225394800       -9.1141365895      -15.1077030542  MEOH      179             0.0000000000
     15734       871  MEOH      HO2             1.1943265729       -9.4753542838      -13.8564747793  MEOH      179             0.0000000000
     15735       871  MEOH      H1A             2.4959097523      -10.7294882615      -15.2831032286  MEOH      179             0.0000000000
     15736       871  MEOH      H1B             1.2922189131      -10.4048926146      -16.5774056113  MEOH      179             0.0000000000
     15737       871  MEOH      H1C             0.8337658669      -11.3895256932      -15.1246016862  MEOH      179             0.0000000000
     15738       871  MEOH      LP1A            0.8608102390       -9.4094855961      -14.4963156989  MEOH      179             0.0000000000
     15739       871  MEOH      LP1B            1.1151608979       -9.0451188511      -14.9811782745  MEOH      179             0.0000000000
     15740       872  MEOH      C1            -32.7595914256        1.4891168776       35.3337296583  MEOH      180             0.0000000000
     15741       872  MEOH      DC1           -32.7620926292        1.4888238252       35.3309930399  MEOH      180             0.0000000000
     15742       872  MEOH      O1            -33.2020381495        0.2364084600       34.8046218881  MEOH      180             0.0000000000
     15743       872  MEOH      DO1           -33.2085485760        0.2360766323       34.8060045159  MEOH      180             0.0000000000
     15744       872  MEOH      HO1           -32.5202977083       -0.0704100836       34.1865665880  MEOH      180             0.0000000000
     15745       872  MEOH      HO2           -33.4299767251       -0.3049267874       35.5765675828  MEOH      180             0.0000000000
     15746       872  MEOH      H1A           -33.5261144524        1.9008424886       36.0245592108  MEOH      180             0.0000000000
     15747       872  MEOH      H1B           -32.5934869594        2.2119533573       34.5065430218  MEOH      180             0.0000000000
     15748       872  MEOH      H1C           -31.8090705807        1.3490036554       35.8915821559  MEOH      180             0.0000000000
     15749       872  MEOH      LP1A          -33.0920098503       -0.0254715538       35.0091032607  MEOH      180             0.0000000000
     15750       872  MEOH      LP1B          -33.3956836760        0.2892532383       34.5179010492  MEOH      180             0.0000000000
     15751       873  MEOH      C1             33.3655827115       25.1643417344        5.2307957582  MEOH      181             0.0000000000
     15752       873  MEOH      DC1            33.3472204881       25.1769875015        5.2298493013  MEOH      181             0.0000000000
     15753       873  MEOH      O1             34.2137491507       24.0178169587        5.1843723098  MEOH      181             0.0000000000
     15754       873  MEOH      DO1            34.2040947498       24.0324698109        5.1884434300  MEOH      181             0.0000000000
     15755       873  MEOH      HO1            34.6506479849       23.9124446399        6.0439745925  MEOH      181             0.0000000000
     15756       873  MEOH      HO2            33.6715759691       23.2987882443        4.8238921451  MEOH      181             0.0000000000
     15757       873  MEOH      H1A            32.9349927007       25.3385645430        4.2215585930  MEOH      181             0.0000000000
     15758       873  MEOH      H1B            33.9615767044       26.0565406329        5.5190548213  MEOH      181             0.0000000000
     15759       873  MEOH      H1C            32.5484689471       25.0018637196        5.9658107182  MEOH      181             0.0000000000
     15760       873  MEOH      LP1A           34.0344154204       23.7323598007        5.2784660087  MEOH      181             0.0000000000
     15761       873  MEOH      LP1B           34.5322776240       24.1090402888        5.0715985730  MEOH      181             0.0000000000
     15762       874  MEOH      C1             14.7839381594       -9.2235737554      -21.3643368294  MEOH      182             0.0000000000
     15763       874  MEOH      DC1            14.7942501206       -9.2254926589      -21.3495214033  MEOH      182             0.0000000000
     15764       874  MEOH      O1             15.4211734023       -8.5595303526      -22.4563159832  MEOH      182             0.0000000000
     15765       874  MEOH      DO1            15.4290948636       -8.5553340404      -22.4429347701  MEOH      182             0.0000000000
     15766       874  MEOH      HO1            15.5518328335       -9.2233919592      -23.1513813616  MEOH      182             0.0000000000
     15767       874  MEOH      HO2            14.8687069422       -7.7842374853      -22.6423315226  MEOH      182             0.0000000000
     15768       874  MEOH      H1A            14.6010354622       -8.5011102634      -20.5403743867  MEOH      182             0.0000000000
     15769       874  MEOH      H1B            15.4335918345      -10.0486122308      -21.0015936468  MEOH      182             0.0000000000
     15770       874  MEOH      H1C            13.8150062248       -9.6508969341      -21.7003231526  MEOH      182             0.0000000000
     15771       874  MEOH      LP1A           15.1802725106       -8.4244858088      -22.6713269866  MEOH      182             0.0000000000
     15772       874  MEOH      LP1B           15.7688397766       -8.5734251727      -22.4184342443  MEOH      182             0.0000000000
     15773       875  MEOH      C1             21.3253878027      -15.3966460655      -33.4739285913  MEOH      183             0.0000000000
     15774       875  MEOH      DC1            21.3323138002      -15.4084181514      -33.4670364916  MEOH      183             0.0000000000
     15775       875  MEOH      O1             22.4039197433      -15.0848073583      -34.3490230374  MEOH      183             0.0000000000
     15776       875  MEOH      DO1            22.4106696929      -15.0956767843      -34.3491661136  MEOH      183             0.0000000000
     15777       875  MEOH      HO1            22.6191764029      -14.1464237289      -34.2306983369  MEOH      183             0.0000000000
     15778       875  MEOH      HO2            23.0715971239      -15.7790737057      -34.2345627617  MEOH      183             0.0000000000
     15779       875  MEOH      H1A            20.9373962910      -16.4087260543      -33.7178090614  MEOH      183             0.0000000000
     15780       875  MEOH      H1B            20.5100896093      -14.6539945558      -33.6083852419  MEOH      183             0.0000000000
     15781       875  MEOH      H1C            21.6818904071      -15.3711512827      -32.4219889968  MEOH      183             0.0000000000
     15782       875  MEOH      LP1A           22.7092629021      -15.1430336797      -34.1881651781  MEOH      183             0.0000000000
     15783       875  MEOH      LP1B           22.2800868201      -14.9849887527      -34.6607948339  MEOH      183             0.0000000000
     15784       876  MEOH      C1             -0.0495130362       21.8998120977       -5.4703327586  MEOH      184             0.0000000000
     15785       876  MEOH      DC1            -0.0363095921       21.8919022755       -5.4699776031  MEOH      184             0.0000000000
     15786       876  MEOH      O1             -1.2195858632       21.0935916298       -5.6069737591  MEOH      184             0.0000000000
     15787       876  MEOH      DO1            -1.2115876776       21.0936822292       -5.6108827463  MEOH      184             0.0000000000
     15788       876  MEOH      HO1            -1.8561126779       21.4046405019       -4.9444164296  MEOH      184             0.0000000000
     15789       876  MEOH      HO2            -1.4510599249       21.1222658458       -6.5485137466  MEOH      184             0.0000000000
     15790       876  MEOH      H1A             0.7442613313       21.5388015130       -6.1587473221  MEOH      184             0.0000000000
     15791       876  MEOH      H1B             0.3364809943       21.8381253961       -4.4303691243  MEOH      184             0.0000000000
     15792       876  MEOH      H1C            -0.2895002418       22.9578500744       -5.7096709745  MEOH      184             0.0000000000
     15793       876  MEOH      LP1A           -1.4372635135       21.2371269971       -5.8404561758  MEOH      184             0.0000000000
     15794       876  MEOH      LP1B           -1.1931401442       20.8090164653       -5.4049400992  MEOH      184             0.0000000000
     15795       877  MEOH      C1              4.2043961444       30.7578433250       34.2733665480  MEOH      185             0.0000000000
     15796       877  MEOH      DC1             4.1947304865       30.7623754083       34.2810724086  MEOH      185             0.0000000000
     15797       877  MEOH      O1              3.7521948281       31.9098016157       34.9909191188  MEOH      185             0.0000000000
     15798       877  MEOH      DO1             3.7560948975       31.9092167076       35.0049230325  MEOH      185             0.0000000000
     15799       877  MEOH      HO1             2.8613052812       32.1353863538       34.6805526562  MEOH      185             0.0000000000
     15800       877  MEOH      HO2             3.8963729745       31.7170989355       35.9305883902  MEOH      185             0.0000000000
     15801       877  MEOH      H1A             5.2617152424       30.5407846368       34.5365829098  MEOH      185             0.0000000000
     15802       877  MEOH      H1B             4.1494186745       30.9423267630       33.1791707980  MEOH      185             0.0000000000
     15803       877  MEOH      H1C             3.6035979882       29.8588599628       34.5286927905  MEOH      185             0.0000000000
     15804       877  MEOH      LP1A            3.5895173780       31.8115257719       35.2848203024  MEOH      185             0.0000000000
     15805       877  MEOH      LP1B            3.8490949773       32.2011475588       34.8229075044  MEOH      185             0.0000000000
     15806       878  MEOH      C1             23.1026681774      -32.1098263235       -6.0328933316  MEOH      186             0.0000000000
     15807       878  MEOH      DC1            23.0968181140      -32.1122071201       -6.0334846259  MEOH      186             0.0000000000
     15808       878  MEOH      O1             22.7888370811      -31.5455553401       -7.2984342097  MEOH      186             0.0000000000
     15809       878  MEOH      DO1            22.7834694115      -31.5477919403       -7.3005286065  MEOH      186             0.0000000000
     15810       878  MEOH      HO1            23.4815115345      -30.8925194687       -7.4845692512  MEOH      186             0.0000000000
     15811       878  MEOH      HO2            22.6754420895      -32.2985290451       -7.8993270248  MEOH      186             0.0000000000
     15812       878  MEOH      H1A            22.3388400615      -32.8718278389       -5.7678625787  MEOH      186             0.0000000000
     15813       878  MEOH      H1B            23.1080581217      -31.3223011273       -5.2492505461  MEOH      186             0.0000000000
     15814       878  MEOH      H1C            24.0979677820      -32.6015810495       -6.0762175397  MEOH      186             0.0000000000
     15815       878  MEOH      LP1A           22.9370997157      -31.7338216041       -7.5535302798  MEOH      186             0.0000000000
     15816       878  MEOH      LP1B           22.5784072594      -31.2689205962       -7.2572940995  MEOH      186             0.0000000000
     15817       879  MEOH      C1             14.3151136365       22.0949358932      -20.2283474402  MEOH      187             0.0000000000
     15818       879  MEOH      DC1            14.3066015255       22.0937169852      -20.2372018304  MEOH      187             0.0000000000
     15819       879  MEOH      O1             15.2962762938       22.9909308741      -20.7464762140  MEOH      187             0.0000000000
     15820       879  MEOH      DO1            15.2849990419       22.9911998267      -20.7613082270  MEOH      187             0.0000000000
     15821       879  MEOH      HO1            16.1296920001       22.4966986102      -20.7917832732  MEOH      187             0.0000000000
     15822       879  MEOH      HO2            14.9063897347       23.4153308957      -21.5267153402  MEOH      187             0.0000000000
     15823       879  MEOH      H1A            13.3726734154       22.6478510103      -20.0273193232  MEOH      187             0.0000000000
     15824       879  MEOH      H1B            14.6840566253       21.6504142567      -19.2793466048  MEOH      187             0.0000000000
     15825       879  MEOH      H1C            14.1224030918       21.2755042346      -20.9534097858  MEOH      187             0.0000000000
     15826       879  MEOH      LP1A           15.3010283374       22.9741230585      -21.0960401072  MEOH      187             0.0000000000
     15827       879  MEOH      LP1B           15.4483098643       23.1664285127      -20.4845862137  MEOH      187             0.0000000000
     15828       880  MEOH      C1             33.9788089826      -19.2767936128       -2.6638139614  MEOH      188             0.0000000000
     15829       880  MEOH      DC1            33.9896928550      -19.2713566464       -2.6852421720  MEOH      188             0.0000000000
     15830       880  MEOH      O1             32.9546986722      -19.7990584647       -1.8167991096  MEOH      188             0.0000000000
     15831       880  MEOH      DO1            32.9473354267      -19.7868854864       -1.8505494782  MEOH      188             0.0000000000
     15832       880  MEOH      HO1            32.7883071554      -19.1950117885       -1.0762982805  MEOH      188             0.0000000000
     15833       880  MEOH      HO2            32.2574020021      -20.1689892414       -2.3805619804  MEOH      188             0.0000000000
     15834       880  MEOH      H1A            34.4277449801      -20.1156400090       -3.2374987125  MEOH      188             0.0000000000
     15835       880  MEOH      H1B            34.7709429492      -18.7968958681       -2.0501830175  MEOH      188             0.0000000000
     15836       880  MEOH      H1C            33.5475975082      -18.5341763089       -3.3687233208  MEOH      188             0.0000000000
     15837       880  MEOH      LP1A           32.6408504724      -19.6910702030       -1.9278749523  MEOH      188             0.0000000000
     15838       880  MEOH      LP1B           33.0958832037      -20.0037969555       -1.5705287735  MEOH      188             0.0000000000
     15839       881  MEOH      C1             24.1370606667       14.4188234946       26.1903588949  MEOH      189             0.0000000000
     15840       881  MEOH      DC1            24.1419788361       14.4365475357       26.2023901786  MEOH      189             0.0000000000
     15841       881  MEOH      O1             24.5363342940       13.1089547621       25.7827868661  MEOH      189             0.0000000000
     15842       881  MEOH      DO1            24.5444212702       13.1229239372       25.7835697457  MEOH      189             0.0000000000
     15843       881  MEOH      HO1            24.9640827419       12.6654685724       26.5319539139  MEOH      189             0.0000000000
     15844       881  MEOH      HO2            23.7417809660       12.7141982551       25.3906742430  MEOH      189             0.0000000000
     15845       881  MEOH      H1A            23.6870177094       14.9541546205       25.3271075269  MEOH      189             0.0000000000
     15846       881  MEOH      H1B            25.0204154398       14.9874025712       26.5519155006  MEOH      189             0.0000000000
     15847       881  MEOH      H1C            23.3792941419       14.3417410447       26.9991661587  MEOH      189             0.0000000000
     15848       881  MEOH      LP1A           24.2764037371       12.8815221225       25.8394481405  MEOH      189             0.0000000000
     15849       881  MEOH      LP1B           24.8589153958       13.1188556476       25.6473490384  MEOH      189             0.0000000000
     15850       882  MEOH      C1             34.7251292934       -6.7253627877       18.5914872128  MEOH      190             0.0000000000
     15851       882  MEOH      DC1            34.7406384547       -6.7670800350       18.5969165959  MEOH      190             0.0000000000
     15852       882  MEOH      O1             34.2405436597       -5.6424800163       17.8077550259  MEOH      190             0.0000000000
     15853       882  MEOH      DO1            34.2462409879       -5.6644783894       17.8048574030  MEOH      190             0.0000000000
     15854       882  MEOH      HO1            34.1050811476       -4.8992297597       18.4161372780  MEOH      190             0.0000000000
     15855       882  MEOH      HO2            34.8562375034       -5.5641671559       17.0623100670  MEOH      190             0.0000000000
     15856       882  MEOH      H1A            34.8577521341       -7.6052507911       17.9262584669  MEOH      190             0.0000000000
     15857       882  MEOH      H1B            33.9911568716       -6.9560847855       19.3929688681  MEOH      190             0.0000000000
     15858       882  MEOH      H1C            35.6966078107       -6.4365493539       19.0466105942  MEOH      190             0.0000000000
     15859       882  MEOH      LP1A           34.5088132297       -5.4548436342       17.6839647762  MEOH      190             0.0000000000
     15860       882  MEOH      LP1B           33.8911868015       -5.6543541979       17.7901826186  MEOH      190             0.0000000000
     15861       883  MEOH      C1             -9.7867255045        9.5476990180       21.8230901270  MEOH      191             0.0000000000
     15862       883  MEOH      DC1            -9.7828049129        9.5575064766       21.8238343768  MEOH      191             0.0000000000
     15863       883  MEOH      O1             -9.9874214302        8.2312788332       22.3399724793  MEOH      191             0.0000000000
     15864       883  MEOH      DO1            -9.9899479599        8.2380008172       22.3355777656  MEOH      191             0.0000000000
     15865       883  MEOH      HO1            -9.1254247344        7.8161386709       22.4997233544  MEOH      191             0.0000000000
     15866       883  MEOH      HO2           -10.6448219308        8.3139364598       23.0484160552  MEOH      191             0.0000000000
     15867       883  MEOH      H1A           -10.7577739447        9.9669088838       21.4830180536  MEOH      191             0.0000000000
     15868       883  MEOH      H1B            -9.0789901484        9.5243193691       20.9670030640  MEOH      191             0.0000000000
     15869       883  MEOH      H1C            -9.3937300521       10.2068692570       22.6264394725  MEOH      191             0.0000000000
     15870       883  MEOH      LP1A          -10.0088478449        8.2417583638       22.6891588023  MEOH      191             0.0000000000
     15871       883  MEOH      LP1B          -10.0109989735        8.0016737698       22.0768648695  MEOH      191             0.0000000000
     15872       884  MEOH      C1            -33.6244799242        2.0490418206      -15.3091958021  MEOH      192             0.0000000000
     15873       884  MEOH      DC1           -33.6291026624        2.0463772344      -15.3041138193  MEOH      192             0.0000000000
     15874       884  MEOH      O1            -32.3678576407        2.5186675825      -14.8099009067  MEOH      192             0.0000000000
     15875       884  MEOH      DO1           -32.3767313419        2.5184724886      -14.8083151155  MEOH      192             0.0000000000
     15876       884  MEOH      HO1           -31.7160882000        2.5076857111      -15.5282155982  MEOH      192             0.0000000000
     15877       884  MEOH      HO2           -32.5603644537        3.3492412425      -14.3473119721  MEOH      192             0.0000000000
     15878       884  MEOH      H1A           -34.3294782144        1.8939136843      -14.4646641724  MEOH      192             0.0000000000
     15879       884  MEOH      H1B           -33.4935592681        1.0877575144      -15.8505951602  MEOH      192             0.0000000000
     15880       884  MEOH      H1C           -34.0668300974        2.7956122885      -16.0029391702  MEOH      192             0.0000000000
     15881       884  MEOH      LP1A          -32.3482962260        2.8665355869      -14.8431454941  MEOH      192             0.0000000000
     15882       884  MEOH      LP1B          -32.1819074475        2.2507925156      -14.6827573888  MEOH      192             0.0000000000
     15883       885  MEOH      C1             26.4019130616       26.8204744382       17.4437864999  MEOH      193             0.0000000000
     15884       885  MEOH      DC1            26.4008245812       26.8328273215       17.4359244223  MEOH      193             0.0000000000
     15885       885  MEOH      O1             25.6968970013       27.7723914662       18.2421504872  MEOH      193             0.0000000000
     15886       885  MEOH      DO1            25.6947848762       27.7773620378       18.2373891694  MEOH      193             0.0000000000
     15887       885  MEOH      HO1            24.9943893993       27.2878267868       18.7032146271  MEOH      193             0.0000000000
     15888       885  MEOH      HO2            26.3725929494       28.2375955530       18.7597605174  MEOH      193             0.0000000000
     15889       885  MEOH      H1A            27.2150435155       27.3316530764       16.8853634839  MEOH      193             0.0000000000
     15890       885  MEOH      H1B            25.7092352733       26.3321154426       16.7254384125  MEOH      193             0.0000000000
     15891       885  MEOH      H1C            26.8569960066       26.0447111096       18.0960224784  MEOH      193             0.0000000000
     15892       885  MEOH      LP1A           25.8460844716       27.7978412290       18.5577378892  MEOH      193             0.0000000000
     15893       885  MEOH      LP1B           25.4365189903       27.9147952068       18.0566121730  MEOH      193             0.0000000000
     15894       886  MEOH      C1            -18.0503946115       32.9091933676       28.6240335858  MEOH      194             0.0000000000
     15895       886  MEOH      DC1           -18.0465385560       32.9100393020       28.6182533370  MEOH      194             0.0000000000
     15896       886  MEOH      O1            -19.2181473885       32.1563024936       28.9526153104  MEOH      194             0.0000000000
     15897       886  MEOH      DO1           -19.2148686809       32.1564158150       28.9566744133  MEOH      194             0.0000000000
     15898       886  MEOH      HO1           -19.2500315083       31.3886197741       28.3605455124  MEOH      194             0.0000000000
     15899       886  MEOH      HO2           -19.1862059475       32.0260085300       29.9132938348  MEOH      194             0.0000000000
     15900       886  MEOH      H1A           -18.0305245241       33.8445773042       29.2231855453  MEOH      194             0.0000000000
     15901       886  MEOH      H1B           -18.0701413872       33.1712721028       27.5445680688  MEOH      194             0.0000000000
     15902       886  MEOH      H1C           -17.1373725131       32.3139826047       28.8395232541  MEOH      194             0.0000000000
     15903       886  MEOH      LP1A          -19.1433951631       31.9220599600       29.2016987105  MEOH      194             0.0000000000
     15904       886  MEOH      LP1B          -19.4913138056       32.2719012130       28.7668276771  MEOH      194             0.0000000000
     15905       887  MEOH      C1            -28.8014234195      -28.9023797950       36.5177758080  MEOH      195             0.0000000000
     15906       887  MEOH      DC1           -28.7924759749      -28.9190647906       36.5284295932  MEOH      195             0.0000000000
     15907       887  MEOH      O1            -27.5233310538      -29.5400510779       36.5103359091  MEOH      195             0.0000000000
     15908       887  MEOH      DO1           -27.5168394606      -29.5471295313       36.5175637085  MEOH      195             0.0000000000
     15909       887  MEOH      HO1           -27.1417898721      -29.4237295763       37.3945279895  MEOH      195             0.0000000000
     15910       887  MEOH      HO2           -27.6674616298      -30.4343057563       36.1632985211  MEOH      195             0.0000000000
     15911       887  MEOH      H1A           -29.2867762800      -28.9340024900       35.5188996365  MEOH      195             0.0000000000
     15912       887  MEOH      H1B           -28.6917785160      -27.8253730736       36.7674866790  MEOH      195             0.0000000000
     15913       887  MEOH      H1C           -29.4711542091      -29.4232372756       37.2350548018  MEOH      195             0.0000000000
     15914       887  MEOH      LP1A          -27.5567800254      -29.8762960612       36.6015525607  MEOH      195             0.0000000000
     15915       887  MEOH      LP1B          -27.2772223490      -29.3137041947       36.4069067357  MEOH      195             0.0000000000
     15916       888  MEOH      C1            -29.1303048519       -0.8867765066        5.0238155616  MEOH      196             0.0000000000
     15917       888  MEOH      DC1           -29.1346782817       -0.8955492530        5.0011807964  MEOH      196             0.0000000000
     15918       888  MEOH      O1            -28.0435367348       -0.2133022311        5.6368498223  MEOH      196             0.0000000000
     15919       888  MEOH      DO1           -28.0466598059       -0.2193594356        5.6023823999  MEOH      196             0.0000000000
     15920       888  MEOH      HO1           -28.3967709954        0.3962934870        6.3035721165  MEOH      196             0.0000000000
     15921       888  MEOH      HO2           -27.4554894015       -0.9232241237        5.9386962081  MEOH      196             0.0000000000
     15922       888  MEOH      H1A           -28.6935870441       -1.6135152667        4.3058675614  MEOH      196             0.0000000000
     15923       888  MEOH      H1B           -29.7822693641       -0.1632113125        4.4892908323  MEOH      196             0.0000000000
     15924       888  MEOH      H1C           -29.7227726454       -1.4396400196        5.7838450678  MEOH      196             0.0000000000
     15925       888  MEOH      LP1A          -27.9291296872       -0.3965525003        5.9122229624  MEOH      196             0.0000000000
     15926       888  MEOH      LP1B          -27.9670982507        0.0778788922        5.4583261218  MEOH      196             0.0000000000
     15927       889  MEOH      C1             36.7441432567      -36.1353453597        3.9356267156  MEOH      197             0.0000000000
     15928       889  MEOH      DC1            36.7597323246      -36.1466526332        3.9332878894  MEOH      197             0.0000000000
     15929       889  MEOH      O1             35.6555090261      -36.1301716198        3.0159220601  MEOH      197             0.0000000000
     15930       889  MEOH      DO1            35.6682587794      -36.1414598390        3.0068946693  MEOH      197             0.0000000000
     15931       889  MEOH      HO1            35.0540167445      -36.8424504210        3.2838137255  MEOH      197             0.0000000000
     15932       889  MEOH      HO2            35.3238028573      -35.2189863905        3.0406707265  MEOH      197             0.0000000000
     15933       889  MEOH      H1A            37.3995322646      -35.2717208249        3.6928533375  MEOH      197             0.0000000000
     15934       889  MEOH      H1B            37.3243619767      -37.0788003266        3.8486786687  MEOH      197             0.0000000000
     15935       889  MEOH      H1C            36.3675076019      -36.0131034394        4.9736650080  MEOH      197             0.0000000000
     15936       889  MEOH      LP1A           35.4038172003      -35.9151427181        3.1295609454  MEOH      197             0.0000000000
     15937       889  MEOH      LP1B           35.7290764836      -36.3355024637        2.7421939582  MEOH      197             0.0000000000
     15938       890  MEOH      C1            -32.4588283113       10.2088033249      -12.5820657388  MEOH      198             0.0000000000
     15939       890  MEOH      DC1           -32.4740828683       10.2017408286      -12.5753540945  MEOH      198             0.0000000000
     15940       890  MEOH      O1            -32.8631987908        8.9549900222      -12.0236663891  MEOH      198             0.0000000000
     15941       890  MEOH      DO1           -32.8775332936        8.9543524558      -12.0175396594  MEOH      198             0.0000000000
     15942       890  MEOH      HO1           -33.3898933041        8.5018278116      -12.7005244987  MEOH      198             0.0000000000
     15943       890  MEOH      HO2           -32.0425371732        8.5350008305      -11.7219652309  MEOH      198             0.0000000000
     15944       890  MEOH      H1A           -31.8401565858       10.7640131838      -11.8449712343  MEOH      198             0.0000000000
     15945       890  MEOH      H1B           -33.3443013050       10.8261505831      -12.8450123898  MEOH      198             0.0000000000
     15946       890  MEOH      H1C           -31.8468537391       10.0415592673      -13.4941170250  MEOH      198             0.0000000000
     15947       890  MEOH      LP1A          -32.6214755113        8.7107775258      -12.0902254815  MEOH      198             0.0000000000
     15948       890  MEOH      LP1B          -33.1670524663        8.9919637048      -11.8539434069  MEOH      198             0.0000000000
     15949       891  MEOH      C1            -19.0169516760       -1.3276779251      -26.9386082668  MEOH      199             0.0000000000
     15950       891  MEOH      DC1           -19.0135252134       -1.3400781507      -26.9347231906  MEOH      199             0.0000000000
     15951       891  MEOH      O1            -19.6019962037       -0.0463498665      -27.2135076133  MEOH      199             0.0000000000
     15952       891  MEOH      DO1           -19.6080802222       -0.0544364130      -27.2117892981  MEOH      199             0.0000000000
     15953       891  MEOH      HO1           -19.2043309458        0.6036563545      -26.6132957713  MEOH      199             0.0000000000
     15954       891  MEOH      HO2           -19.5409096885        0.0832897346      -28.1728626112  MEOH      199             0.0000000000
     15955       891  MEOH      H1A           -19.4476948111       -2.0822909273      -27.6309525232  MEOH      199             0.0000000000
     15956       891  MEOH      H1B           -19.2243242992       -1.6265968582      -25.8888630279  MEOH      199             0.0000000000
     15957       891  MEOH      H1C           -17.9136911112       -1.3076844800      -27.0679813341  MEOH      199             0.0000000000
     15958       891  MEOH      LP1A          -19.4183480004        0.1183051246      -27.4618261010  MEOH      199             0.0000000000
     15959       891  MEOH      LP1B          -19.8897377140       -0.0019765055      -27.0192504948  MEOH      199             0.0000000000
     15960       892  MEOH      C1             22.3905383163       33.8011742108      -31.0142292895  MEOH      200             0.0000000000
     15961       892  MEOH      DC1            22.3855321384       33.8014468490      -31.0090155310  MEOH      200             0.0000000000
     15962       892  MEOH      O1             22.7811276635       33.8420420358      -32.3911722771  MEOH      200             0.0000000000
     15963       892  MEOH      DO1            22.7624976542       33.8373203690      -32.3888420936  MEOH      200             0.0000000000
     15964       892  MEOH      HO1            22.4699366750       34.6798922343      -32.7680903233  MEOH      200             0.0000000000
     15965       892  MEOH      HO2            23.7376248024       33.6808599019      -32.3853806054  MEOH      200             0.0000000000
     15966       892  MEOH      H1A            22.8092532883       32.8938478484      -30.5286804814  MEOH      200             0.0000000000
     15967       892  MEOH      H1B            21.2830425026       33.7644364350      -30.9340771930  MEOH      200             0.0000000000
     15968       892  MEOH      H1C            22.7631932344       34.7089472863      -30.4932711745  MEOH      200             0.0000000000
     15969       892  MEOH      LP1A           23.0997774169       33.9837075841      -32.4210588473  MEOH      200             0.0000000000
     15970       892  MEOH      LP1B           22.5326856288       33.6968843152      -32.5904353985  MEOH      200             0.0000000000
     15971       893  MEOH      C1             17.1104170548      -25.4201292057       34.0727470419  MEOH      201             0.0000000000
     15972       893  MEOH      DC1            17.1143143409      -25.4096118653       34.0779079192  MEOH      201             0.0000000000
     15973       893  MEOH      O1             16.9761872065      -24.3752625499       35.0390926087  MEOH      201             0.0000000000
     15974       893  MEOH      DO1            16.9789338804      -24.3654327392       35.0451601983  MEOH      201             0.0000000000
     15975       893  MEOH      HO1            17.4647461940      -23.6107049977       34.6960738554  MEOH      201             0.0000000000
     15976       893  MEOH      HO2            16.0250163850      -24.3047421270       35.2157304867  MEOH      201             0.0000000000
     15977       893  MEOH      H1A            16.6161855001      -26.3421493502       34.4468259418  MEOH      201             0.0000000000
     15978       893  MEOH      H1B            18.1841413207      -25.6409850949       33.8920265961  MEOH      201             0.0000000000
     15979       893  MEOH      H1C            16.6432095097      -25.1237932498       33.1093036800  MEOH      201             0.0000000000
     15980       893  MEOH      LP1A           16.6898920494      -24.1856525273       34.9713938467  MEOH      201             0.0000000000
     15981       893  MEOH      LP1B           17.2336344367      -24.3967960465       35.2752223022  MEOH      201             0.0000000000
     15982       894  MEOH      C1            -14.4920565388       32.5453276833       16.7942006910  MEOH      202             0.0000000000
     15983       894  MEOH      DC1           -14.5039543529       32.5314853807       16.7984952982  MEOH      202             0.0000000000
     15984       894  MEOH      O1            -13.6559213700       31.3902346378       16.9012439695  MEOH      202             0.0000000000
     15985       894  MEOH      DO1           -13.6610708456       31.3862698823       16.9071023781  MEOH      202             0.0000000000
     15986       894  MEOH      HO1           -13.8963705898       30.7728680842       16.1927648149  MEOH      202             0.0000000000
     15987       894  MEOH      HO2           -12.7487579140       31.7254184287       16.9761191357  MEOH      202             0.0000000000
     15988       894  MEOH      H1A           -14.2682056767       33.2364697020       17.6347567578  MEOH      202             0.0000000000
     15989       894  MEOH      H1B           -15.5632045511       32.2575804321       16.8587332903  MEOH      202             0.0000000000
     15990       894  MEOH      H1C           -14.2957615996       33.0755618366       15.8378320173  MEOH      202             0.0000000000
     15991       894  MEOH      LP1A          -13.3624260944       31.4373701799       16.7164771872  MEOH      202             0.0000000000
     15992       894  MEOH      LP1B          -13.8042043709       31.1543316235       17.1130502948  MEOH      202             0.0000000000
     15993       895  MEOH      C1            -13.3639628294       23.2993319187       10.5193044439  MEOH      203             0.0000000000
     15994       895  MEOH      DC1           -13.3712218649       23.3168177454       10.5310452036  MEOH      203             0.0000000000
     15995       895  MEOH      O1            -13.8436478763       24.5842273094       10.9272722869  MEOH      203             0.0000000000
     15996       895  MEOH      DO1           -13.8489522724       24.5953862308       10.9405278533  MEOH      203             0.0000000000
     15997       895  MEOH      HO1           -13.7788698550       25.1477174571       10.1403906813  MEOH      203             0.0000000000
     15998       895  MEOH      HO2           -14.7076288978       24.4238913040       11.3380388394  MEOH      203             0.0000000000
     15999       895  MEOH      H1A           -13.3653136742       22.6024021801       11.3845258694  MEOH      203             0.0000000000
     16000       895  MEOH      H1B           -12.3280941225       23.3857878773       10.1271024688  MEOH      203             0.0000000000
     16001       895  MEOH      H1C           -14.0099358521       22.8723648193        9.7225993850  MEOH      203             0.0000000000
     16002       895  MEOH      LP1A          -14.1898781618       24.6033688229       10.8797518506  MEOH      203             0.0000000000
     16003       895  MEOH      LP1B          -13.5795429344       24.7760150765       11.0536290518  MEOH      203             0.0000000000
     16004       896  MEOH      C1             -7.6112023957        0.3274201834      -21.8466163204  MEOH      204             0.0000000000
     16005       896  MEOH      DC1            -7.6081954698        0.3123072931      -21.8540479396  MEOH      204             0.0000000000
     16006       896  MEOH      O1             -7.4511035041       -1.0141526101      -22.3266270314  MEOH      204             0.0000000000
     16007       896  MEOH      DO1            -7.4493227190       -1.0273335536      -22.3268570673  MEOH      204             0.0000000000
     16008       896  MEOH      HO1            -6.8924345293       -1.4743397350      -21.6808586617  MEOH      204             0.0000000000
     16009       896  MEOH      HO2            -8.3453333467       -1.3386538115      -22.5162370493  MEOH      204             0.0000000000
     16010       896  MEOH      H1A            -8.2223933816        0.9193966156      -22.5609905101  MEOH      204             0.0000000000
     16011       896  MEOH      H1B            -6.6245788873        0.8260846390      -21.7360323591  MEOH      204             0.0000000000
     16012       896  MEOH      H1C            -8.1361567321        0.3326664460      -20.8674756659  MEOH      204             0.0000000000
     16013       896  MEOH      LP1A           -7.7092116896       -1.2165754318      -22.2045403169  MEOH      204             0.0000000000
     16014       896  MEOH      LP1B           -7.1727797168       -1.0332549296      -22.5379821137  MEOH      204             0.0000000000
     16015       897  MEOH      C1            -27.9704194299        2.2481783760      -28.5503310757  MEOH      205             0.0000000000
     16016       897  MEOH      DC1           -27.9736643307        2.2503324424      -28.5508774156  MEOH      205             0.0000000000
     16017       897  MEOH      O1            -27.0937215132        3.2526747418      -28.0288505486  MEOH      205             0.0000000000
     16018       897  MEOH      DO1           -27.1041779086        3.2570616335      -28.0255860656  MEOH      205             0.0000000000
     16019       897  MEOH      HO1           -26.3458539139        3.3491004924      -28.6390112892  MEOH      205             0.0000000000
     16020       897  MEOH      HO2           -27.6537266191        4.0115679433      -27.8021891490  MEOH      205             0.0000000000
     16021       897  MEOH      H1A           -28.7430216727        1.9976266428      -27.7922871433  MEOH      205             0.0000000000
     16022       897  MEOH      H1B           -27.3986541182        1.3283687366      -28.7980318169  MEOH      205             0.0000000000
     16023       897  MEOH      H1C           -28.4807798538        2.6185528876      -29.4650310043  MEOH      205             0.0000000000
     16024       897  MEOH      LP1A          -27.1892567704        3.5679853640      -28.1469700903  MEOH      205             0.0000000000
     16025       897  MEOH      LP1B          -26.8585777090        3.1067991534      -27.8145430498  MEOH      205             0.0000000000
     16026       898  MEOH      C1              4.2139956162       26.2983239575      -23.1429891418  MEOH      206             0.0000000000
     16027       898  MEOH      DC1             4.2080062567       26.3118758890      -23.1588306387  MEOH      206             0.0000000000
     16028       898  MEOH      O1              3.6833792357       27.3216729621      -23.9768349728  MEOH      206             0.0000000000
     16029       898  MEOH      DO1             3.6782106000       27.3304108801      -23.9873045203  MEOH      206             0.0000000000
     16030       898  MEOH      HO1             3.5894743994       28.0908796117      -23.3933943058  MEOH      206             0.0000000000
     16031       898  MEOH      HO2             4.2802461366       27.3576093218      -24.7406140522  MEOH      206             0.0000000000
     16032       898  MEOH      H1A             4.2720797863       25.3357142767      -23.6946501171  MEOH      206             0.0000000000
     16033       898  MEOH      H1B             3.5739445711       26.1234098972      -22.2518882875  MEOH      206             0.0000000000
     16034       898  MEOH      H1C             5.2328770765       26.5830704158      -22.8036942484  MEOH      206             0.0000000000
     16035       898  MEOH      LP1A            3.9438597298       27.4997174392      -24.1283277990  MEOH      206             0.0000000000
     16036       898  MEOH      LP1B            3.3336310199       27.3085944666      -23.9745681463  MEOH      206             0.0000000000
     16037       899  MEOH      C1             -8.9785754155       24.6501712857       11.6494216984  MEOH      207             0.0000000000
     16038       899  MEOH      DC1            -8.9805228198       24.6597697089       11.6311536526  MEOH      207             0.0000000000
     16039       899  MEOH      O1             -8.1276266821       25.7642870619       11.3941916628  MEOH      207             0.0000000000
     16040       899  MEOH      DO1            -8.1291770152       25.7699030721       11.3636219038  MEOH      207             0.0000000000
     16041       899  MEOH      HO1            -7.2188545184       25.4278634103       11.3511535118  MEOH      207             0.0000000000
     16042       899  MEOH      HO2            -8.5500833094       26.2915088740       10.6981546244  MEOH      207             0.0000000000
     16043       899  MEOH      H1A            -9.9506881835       25.0082130160       12.0508240989  MEOH      207             0.0000000000
     16044       899  MEOH      H1B            -8.5161551501       23.9796217145       12.4049690306  MEOH      207             0.0000000000
     16045       899  MEOH      H1C            -9.1687004115       24.0766173048       10.7171077402  MEOH      207             0.0000000000
     16046       899  MEOH      LP1A           -8.0940402279       25.8127039210       11.0491876659  MEOH      207             0.0000000000
     16047       899  MEOH      LP1B           -8.0273756492       25.9100107573       11.6962087733  MEOH      207             0.0000000000
     16048       900  MEOH      C1            -30.7927408055        4.8816976044       22.9893842543  MEOH      208             0.0000000000
     16049       900  MEOH      DC1           -30.7867960008        4.8845937476       22.9856478535  MEOH      208             0.0000000000
     16050       900  MEOH      O1            -29.8531963174        5.1935930399       21.9561463463  MEOH      208             0.0000000000
     16051       900  MEOH      DO1           -29.8503889090        5.1950134345       21.9564456553  MEOH      208             0.0000000000
     16052       900  MEOH      HO1           -29.9448553998        4.5208535000       21.2633836707  MEOH      208             0.0000000000
     16053       900  MEOH      HO2           -29.9762680954        6.1327123077       21.7468419308  MEOH      208             0.0000000000
     16054       900  MEOH      H1A           -30.6163279308        5.5468708563       23.8615906774  MEOH      208             0.0000000000
     16055       900  MEOH      H1B           -30.6810855672        3.8243181032       23.3115685165  MEOH      208             0.0000000000
     16056       900  MEOH      H1C           -31.8328266894        5.0310665136       22.6285085374  MEOH      208             0.0000000000
     16057       900  MEOH      LP1A          -29.9993119675        5.4095807635       21.7226950236  MEOH      208             0.0000000000
     16058       900  MEOH      LP1B          -29.5463535750        5.0389363541       22.0226958841  MEOH      208             0.0000000000
     16059       901  MEOH      C1             -7.8744215651        1.8496292993       29.2350704601  MEOH      209             0.0000000000
     16060       901  MEOH      DC1            -7.8680400904        1.8528180629       29.2251385812  MEOH      209             0.0000000000
     16061       901  MEOH      O1             -9.1172582438        1.3747406874       29.7545368649  MEOH      209             0.0000000000
     16062       901  MEOH      DO1            -9.1102169102        1.3747645662       29.7477728835  MEOH      209             0.0000000000
     16063       901  MEOH      HO1            -9.3169163392        0.5172925666       29.3473276239  MEOH      209             0.0000000000
     16064       901  MEOH      HO2            -9.0449588766        1.4509100854       30.7188350679  MEOH      209             0.0000000000
     16065       901  MEOH      H1A            -7.6508002211        2.8483366764       29.6673875535  MEOH      209             0.0000000000
     16066       901  MEOH      H1B            -7.9353955070        1.9441856093       28.1297821337  MEOH      209             0.0000000000
     16067       901  MEOH      H1C            -7.0588389595        1.1479752390       29.5122483701  MEOH      209             0.0000000000
     16068       901  MEOH      LP1A           -9.0618082151        1.1868567886       30.0445798529  MEOH      209             0.0000000000
     16069       901  MEOH      LP1B           -9.3819199317        1.4924439528       29.5580677012  MEOH      209             0.0000000000
     16070       902  MEOH      C1             15.4357248865      -16.1414340175      -25.7151149513  MEOH      210             0.0000000000
     16071       902  MEOH      DC1            15.4471051839      -16.1673674982      -25.7004873410  MEOH      210             0.0000000000
     16072       902  MEOH      O1             14.5815905117      -15.4273865423      -26.6049316771  MEOH      210             0.0000000000
     16073       902  MEOH      DO1            14.5859620100      -15.4590324134      -26.6099451413  MEOH      210             0.0000000000
     16074       902  MEOH      HO1            13.7701501747      -15.2078405830      -26.1209232556  MEOH      210             0.0000000000
     16075       902  MEOH      HO2            15.1163983176      -14.6780386131      -26.9104775685  MEOH      210             0.0000000000
     16076       902  MEOH      H1A            16.4490296240      -16.1973714741      -26.1672272272  MEOH      210             0.0000000000
     16077       902  MEOH      H1B            15.0329070230      -17.1635705692      -25.5499010290  MEOH      210             0.0000000000
     16078       902  MEOH      H1C            15.5138383927      -15.6042877808      -24.7457372121  MEOH      210             0.0000000000
     16079       902  MEOH      LP1A           14.6488288987      -15.0844283367      -26.5859931307  MEOH      210             0.0000000000
     16080       902  MEOH      LP1B           14.3787574756      -15.6512907769      -26.7816394958  MEOH      210             0.0000000000
     16081       903  MEOH      C1            -25.9203240605       -7.7049717950       15.8249478239  MEOH      211             0.0000000000
     16082       903  MEOH      DC1           -25.9301023115       -7.7172535085       15.8193839677  MEOH      211             0.0000000000
     16083       903  MEOH      O1            -27.2296351238       -8.2432408968       16.0241142649  MEOH      211             0.0000000000
     16084       903  MEOH      DO1           -27.2355757052       -8.2443084088       16.0168052391  MEOH      211             0.0000000000
     16085       903  MEOH      HO1           -27.5242693839       -7.9659021442       16.9056889183  MEOH      211             0.0000000000
     16086       903  MEOH      HO2           -27.7431853664       -7.9967570174       15.2389952640  MEOH      211             0.0000000000
     16087       903  MEOH      H1A           -25.4878520301       -8.0956765898       14.8790943961  MEOH      211             0.0000000000
     16088       903  MEOH      H1B           -25.2458208250       -7.9836618711       16.6626221203  MEOH      211             0.0000000000
     16089       903  MEOH      H1C           -25.9741105875       -6.5986327703       15.7386809468  MEOH      211             0.0000000000
     16090       903  MEOH      LP1A          -27.4706531755       -8.0186074793       15.9060036112  MEOH      211             0.0000000000
     16091       903  MEOH      LP1B          -27.2075098822       -8.5628019693       16.1651504114  MEOH      211             0.0000000000
     16092       904  MEOH      C1             22.4811261532       10.2242518444       32.1998095590  MEOH      212             0.0000000000
     16093       904  MEOH      DC1            22.4722843211       10.2358918163       32.1933263015  MEOH      212             0.0000000000
     16094       904  MEOH      O1             21.7150701275       11.3701994143       31.8206628891  MEOH      212             0.0000000000
     16095       904  MEOH      DO1            21.7161643798       11.3842236150       31.8142140304  MEOH      212             0.0000000000
     16096       904  MEOH      HO1            20.8643436388       11.3087810731       32.2826068562  MEOH      212             0.0000000000
     16097       904  MEOH      HO2            22.2947180879       12.1410180041       31.9243303637  MEOH      212             0.0000000000
     16098       904  MEOH      H1A            23.4145112542       10.1762510818       31.5991356202  MEOH      212             0.0000000000
     16099       904  MEOH      H1B            21.8955611681        9.2968387275       32.0227797347  MEOH      212             0.0000000000
     16100       904  MEOH      H1C            22.7504418048       10.2866218797       33.2758672062  MEOH      212             0.0000000000
     16101       904  MEOH      LP1A           21.7807620879       11.6357063852       32.0390446987  MEOH      212             0.0000000000
     16102       904  MEOH      LP1B           21.5297340754       11.3001810802       31.5321356275  MEOH      212             0.0000000000
     16103       905  MEOH      C1              7.8177483579       -2.3215394505      -12.4641610492  MEOH      213             0.0000000000
     16104       905  MEOH      DC1             7.8163722880       -2.3241070943      -12.4631934733  MEOH      213             0.0000000000
     16105       905  MEOH      O1              8.8095513131       -1.6756027753      -11.6628155183  MEOH      213             0.0000000000
     16106       905  MEOH      DO1             8.8107508716       -1.6803606560      -11.6654550292  MEOH      213             0.0000000000
     16107       905  MEOH      HO1             9.4919934587       -1.3404758487      -12.2651963455  MEOH      213             0.0000000000
     16108       905  MEOH      HO2             8.3259467396       -1.0445870875      -11.1070765339  MEOH      213             0.0000000000
     16109       905  MEOH      H1A             7.0151489515       -2.7284866567      -11.8125866751  MEOH      213             0.0000000000
     16110       905  MEOH      H1B             8.2668928563       -3.1686092640      -13.0254657353  MEOH      213             0.0000000000
     16111       905  MEOH      H1C             7.3748847507       -1.5928802998      -13.1763749702  MEOH      213             0.0000000000
     16112       905  MEOH      LP1A            8.7263139927       -1.3386247942      -11.6179001677  MEOH      213             0.0000000000
     16113       905  MEOH      LP1B            9.0529272057       -1.9069317787      -11.5640477751  MEOH      213             0.0000000000
     16114       906  MEOH      C1              9.8147459532      -29.3571515463      -20.6046568894  MEOH      214             0.0000000000
     16115       906  MEOH      DC1             9.8270590319      -29.3590840805      -20.5874572426  MEOH      214             0.0000000000
     16116       906  MEOH      O1             10.9629537794      -28.6175191321      -20.1796561250  MEOH      214             0.0000000000
     16117       906  MEOH      DO1            10.9734190592      -28.6216575155      -20.1601215771  MEOH      214             0.0000000000
     16118       906  MEOH      HO1            11.6811076087      -29.2619347052      -20.0802395937  MEOH      214             0.0000000000
     16119       906  MEOH      HO2            11.0659022448      -27.9185813860      -20.8443272031  MEOH      214             0.0000000000
     16120       906  MEOH      H1A             8.9752068484      -28.6645071689      -20.8276789913  MEOH      214             0.0000000000
     16121       906  MEOH      H1B             9.4992830780      -30.0665885164      -19.8099850314  MEOH      214             0.0000000000
     16122       906  MEOH      H1C            10.0505284866      -29.9250459538      -21.5299803678  MEOH      214             0.0000000000
     16123       906  MEOH      LP1A           11.1417666535      -28.5035898603      -20.4581270878  MEOH      214             0.0000000000
     16124       906  MEOH      LP1B           10.9701658301      -28.5979654957      -19.8302771880  MEOH      214             0.0000000000
     16125       907  MEOH      C1             14.0613296554      -36.4300462785       16.3767385681  MEOH      215             0.0000000000
     16126       907  MEOH      DC1            14.0550119769      -36.4236753387       16.3808638280  MEOH      215             0.0000000000
     16127       907  MEOH      O1             15.3087308095      -36.7723985823       16.9841024794  MEOH      215             0.0000000000
     16128       907  MEOH      DO1            15.3003181008      -36.7673594806       16.9788830370  MEOH      215             0.0000000000
     16129       907  MEOH      HO1            15.7478505455      -37.4363768104       16.4298401124  MEOH      215             0.0000000000
     16130       907  MEOH      HO2            15.7559621987      -35.9314847447       17.1678087730  MEOH      215             0.0000000000
     16131       907  MEOH      H1A            13.5040891807      -35.7209734914       17.0255989814  MEOH      215             0.0000000000
     16132       907  MEOH      H1B            13.4354511071      -37.3345686442       16.2204173147  MEOH      215             0.0000000000
     16133       907  MEOH      H1C            14.2542837441      -35.9622487462       15.3876707297  MEOH      215             0.0000000000
     16134       907  MEOH      LP1A           15.5604555096      -36.5578009398       16.8697236039  MEOH      215             0.0000000000
     16135       907  MEOH      LP1B           15.2638547750      -37.0369864253       17.2087787239  MEOH      215             0.0000000000
     16136       908  MEOH      C1             -4.1667099905        3.6050594697      -29.2275790246  MEOH      216             0.0000000000
     16137       908  MEOH      DC1            -4.1526743955        3.6067787671      -29.2292417057  MEOH      216             0.0000000000
     16138       908  MEOH      O1             -3.1571771124        3.3893759069      -30.2129136594  MEOH      216             0.0000000000
     16139       908  MEOH      DO1            -3.1426601852        3.3818757856      -30.2048966739  MEOH      216             0.0000000000
     16140       908  MEOH      HO1            -2.8632607128        4.2580659106      -30.5289687623  MEOH      216             0.0000000000
     16141       908  MEOH      HO2            -2.5313746225        2.7513787651      -29.8357785500  MEOH      216             0.0000000000
     16142       908  MEOH      H1A            -4.6513670817        2.6372589430      -28.9769984098  MEOH      216             0.0000000000
     16143       908  MEOH      H1B            -4.9401520317        4.3007726665      -29.6175682014  MEOH      216             0.0000000000
     16144       908  MEOH      H1C            -3.7205959520        4.0322986972      -28.3041236074  MEOH      216             0.0000000000
     16145       908  MEOH      LP1A           -2.8425907946        3.3729577868      -30.0603820430  MEOH      216             0.0000000000
     16146       908  MEOH      LP1B           -3.3034593642        3.3582647382      -30.5293525919  MEOH      216             0.0000000000
     16147       909  MEOH      C1             16.0665703249      -29.7398329733       15.7794502886  MEOH      217             0.0000000000
     16148       909  MEOH      DC1            16.0452233170      -29.7208632364       15.7590235912  MEOH      217             0.0000000000
     16149       909  MEOH      O1             16.1442375867      -28.4083989479       15.2753734899  MEOH      217             0.0000000000
     16150       909  MEOH      DO1            16.1107640412      -28.3977154396       15.2614071516  MEOH      217             0.0000000000
     16151       909  MEOH      HO1            16.8257125358      -27.9770230679       15.8142674905  MEOH      217             0.0000000000
     16152       909  MEOH      HO2            16.2835032343      -28.4984615100       14.3196571011  MEOH      217             0.0000000000
     16153       909  MEOH      H1A            15.2812551387      -30.3265130985       15.2565664689  MEOH      217             0.0000000000
     16154       909  MEOH      H1B            15.8141834400      -29.7017298907       16.8607319433  MEOH      217             0.0000000000
     16155       909  MEOH      H1C            17.0474890120      -30.2493245455       15.6674776689  MEOH      217             0.0000000000
     16156       909  MEOH      LP1A           16.3767106904      -28.3926475677       15.0142065890  MEOH      217             0.0000000000
     16157       909  MEOH      LP1B           15.9166267460      -28.2030086378       15.4442169845  MEOH      217             0.0000000000
     16158       910  MEOH      C1             32.1928177861       35.7260957727       18.7669379515  MEOH      218             0.0000000000
     16159       910  MEOH      DC1            32.2027899043       35.7167860462       18.7640862705  MEOH      218             0.0000000000
     16160       910  MEOH      O1             31.5921110321       36.0441927624       20.0260358335  MEOH      218             0.0000000000
     16161       910  MEOH      DO1            31.5966816528       36.0467822948       20.0168733323  MEOH      218             0.0000000000
     16162       910  MEOH      HO1            32.0757968761       35.5894474934       20.7332520272  MEOH      218             0.0000000000
     16163       910  MEOH      HO2            31.4545601345       37.0042982432       20.0393481213  MEOH      218             0.0000000000
     16164       910  MEOH      H1A            31.4983031135       36.0087777804       17.9471445296  MEOH      218             0.0000000000
     16165       910  MEOH      H1B            32.3525324319       34.6298781240       18.6825631950  MEOH      218             0.0000000000
     16166       910  MEOH      H1C            33.1465531498       36.2805814386       18.6355777508  MEOH      218             0.0000000000
     16167       910  MEOH      LP1A           31.7380136384       36.3333878869       20.1586201820  MEOH      218             0.0000000000
     16168       910  MEOH      LP1B           31.3379640581       35.8148054000       20.0987733997  MEOH      218             0.0000000000
     16169       911  MEOH      C1            -11.4733835212       12.0942505177       11.5873120552  MEOH      219             0.0000000000
     16170       911  MEOH      DC1           -11.4695684983       12.1104416559       11.5859728259  MEOH      219             0.0000000000
     16171       911  MEOH      O1            -10.7308237679       11.0098770668       12.1177840860  MEOH      219             0.0000000000
     16172       911  MEOH      DO1           -10.7319157819       11.0243836150       12.1143884978  MEOH      219             0.0000000000
     16173       911  MEOH      HO1           -10.9329963382       10.2114329927       11.6054235555  MEOH      219             0.0000000000
     16174       911  MEOH      HO2            -9.8138320532       11.3188307510       12.1854140807  MEOH      219             0.0000000000
     16175       911  MEOH      H1A           -11.3605921018       12.9715696888       12.2595546962  MEOH      219             0.0000000000
     16176       911  MEOH      H1B           -12.5497085710       11.8285829562       11.5147439220  MEOH      219             0.0000000000
     16177       911  MEOH      H1C           -11.0841284276       12.3576968800       10.5806355988  MEOH      219             0.0000000000
     16178       911  MEOH      LP1A          -10.4183481334       10.9908325310       11.9612711998  MEOH      219             0.0000000000
     16179       911  MEOH      LP1B          -10.9132816612       10.8527305667       12.3717803353  MEOH      219             0.0000000000
     16180       912  MEOH      C1             17.3942213337      -32.5975284860      -35.0315335158  MEOH      220             0.0000000000
     16181       912  MEOH      DC1            17.3900647178      -32.5982988627      -35.0209032620  MEOH      220             0.0000000000
     16182       912  MEOH      O1             17.8733926356      -31.2899424009      -34.7429442580  MEOH      220             0.0000000000
     16183       912  MEOH      DO1            17.8754396947      -31.2968372713      -34.7339036509  MEOH      220             0.0000000000
     16184       912  MEOH      HO1            17.8655422944      -31.1551477550      -33.7823877654  MEOH      220             0.0000000000
     16185       912  MEOH      HO2            18.7004254842      -31.2005409563      -35.2418671476  MEOH      220             0.0000000000
     16186       912  MEOH      H1A            17.2843681151      -32.7118122762      -36.1311664026  MEOH      220             0.0000000000
     16187       912  MEOH      H1B            16.4061633025      -32.7660575304      -34.5523046670  MEOH      220             0.0000000000
     16188       912  MEOH      H1C            18.1333298585      -33.3484741717      -34.6792265957  MEOH      220             0.0000000000
     16189       912  MEOH      LP1A           18.2213271976      -31.2955326909      -34.7053904400  MEOH      220             0.0000000000
     16190       912  MEOH      LP1B           17.6075536992      -31.0622812007      -34.7431387491  MEOH      220             0.0000000000
     16191       913  MEOH      C1            -22.0310754542       -0.9151180045      -25.4877517351  MEOH      221             0.0000000000
     16192       913  MEOH      DC1           -22.0353864482       -0.9158977955      -25.4828575692  MEOH      221             0.0000000000
     16193       913  MEOH      O1            -21.7996072406       -2.1565194577      -26.1612675032  MEOH      221             0.0000000000
     16194       913  MEOH      DO1           -21.7967506424       -2.1618993049      -26.1607972643  MEOH      221             0.0000000000
     16195       913  MEOH      HO1           -21.3834638723       -2.7591489416      -25.5252153024  MEOH      221             0.0000000000
     16196       913  MEOH      HO2           -22.6256275448       -2.3858424569      -26.6151412973  MEOH      221             0.0000000000
     16197       913  MEOH      H1A           -22.3850898688       -0.1561361697      -26.2177800701  MEOH      221             0.0000000000
     16198       913  MEOH      H1B           -21.0914697184       -0.5446217396      -25.0249401331  MEOH      221             0.0000000000
     16199       913  MEOH      H1C           -22.7934045662       -1.0544278607      -24.6916562063  MEOH      221             0.0000000000
     16200       913  MEOH      LP1A          -22.0793588639       -2.3643234556      -26.1287632306  MEOH      221             0.0000000000
     16201       913  MEOH      LP1B          -21.4857137092       -2.1520346771      -26.3160277619  MEOH      221             0.0000000000
     16202       914  MEOH      C1            -20.9103012680       19.0179455940      -23.6631711406  MEOH      222             0.0000000000
     16203       914  MEOH      DC1           -20.9104321278       19.0076823790      -23.6676436270  MEOH      222             0.0000000000
     16204       914  MEOH      O1            -21.7085832417       18.0709429851      -24.3767353934  MEOH      222             0.0000000000
     16205       914  MEOH      DO1           -21.7108760762       18.0668910484      -24.3828531691  MEOH      222             0.0000000000
     16206       914  MEOH      HO1           -21.1013967134       17.4919747225      -24.8635826700  MEOH      222             0.0000000000
     16207       914  MEOH      HO2           -22.3322008246       17.7067101234      -23.7291741729  MEOH      222             0.0000000000
     16208       914  MEOH      H1A           -21.5710785959       19.7464844151      -23.1465227983  MEOH      222             0.0000000000
     16209       914  MEOH      H1B           -20.2604034841       19.5846429577      -24.3637480233  MEOH      222             0.0000000000
     16210       914  MEOH      H1C           -20.2869527612       18.5030784654      -22.9011544217  MEOH      222             0.0000000000
     16211       914  MEOH      LP1A          -21.7682939452       17.7899410548      -24.1768040375  MEOH      222             0.0000000000
     16212       914  MEOH      LP1B          -21.7920909301       18.1981452003      -24.6919274974  MEOH      222             0.0000000000
     16213       915  MEOH      C1             27.6041099231       30.3954553611       17.4578907001  MEOH      223             0.0000000000
     16214       915  MEOH      DC1            27.6008106073       30.3974422028       17.4480538892  MEOH      223             0.0000000000
     16215       915  MEOH      O1             26.6194071069       31.4292417566       17.5490530753  MEOH      223             0.0000000000
     16216       915  MEOH      DO1            26.6073721636       31.4242595373       17.5404080560  MEOH      223             0.0000000000
     16217       915  MEOH      HO1            26.9231669994       32.0370590835       18.2412871577  MEOH      223             0.0000000000
     16218       915  MEOH      HO2            26.4781950119       31.7433048946       16.6422325356  MEOH      223             0.0000000000
     16219       915  MEOH      H1A            27.2508351516       29.6071596164       16.7592436114  MEOH      223             0.0000000000
     16220       915  MEOH      H1B            27.7735581425       29.9418951010       18.4578363955  MEOH      223             0.0000000000
     16221       915  MEOH      H1C            28.5650632785       30.8070575759       17.0817613789  MEOH      223             0.0000000000
     16222       915  MEOH      LP1A           26.6970784969       31.6884579518       17.3270753303  MEOH      223             0.0000000000
     16223       915  MEOH      LP1B           26.3708684449       31.3379756794       17.7779614340  MEOH      223             0.0000000000
     16224       916  MEOH      C1             -4.4054138602       -4.1491557071      -30.6829293060  MEOH      224             0.0000000000
     16225       916  MEOH      DC1            -4.3973520138       -4.1488697414      -30.6745685355  MEOH      224             0.0000000000
     16226       916  MEOH      O1             -4.9389320602       -5.4439465059      -30.4557962382  MEOH      224             0.0000000000
     16227       916  MEOH      DO1            -4.9354334472       -5.4481411146      -30.4550737396  MEOH      224             0.0000000000
     16228       916  MEOH      HO1            -4.8841543167       -5.9139014673      -31.3025794059  MEOH      224             0.0000000000
     16229       916  MEOH      HO2            -4.4984283012       -5.7839545328      -29.6612831916  MEOH      224             0.0000000000
     16230       916  MEOH      H1A            -4.5532071047       -3.5130562076      -29.7841214367  MEOH      224             0.0000000000
     16231       916  MEOH      H1B            -4.9302991137       -3.6793708671      -31.5420676390  MEOH      224             0.0000000000
     16232       916  MEOH      H1C            -3.3203005214       -4.2184671660      -30.9110651509  MEOH      224             0.0000000000
     16233       916  MEOH      LP1A           -4.6853285333       -5.6612314650      -30.3510465478  MEOH      224             0.0000000000
     16234       916  MEOH      LP1B           -5.2845103193       -5.4424390389      -30.5112344419  MEOH      224             0.0000000000
     16235       917  MEOH      C1             -9.4228086058       -4.1054484914       17.2420016594  MEOH      225             0.0000000000
     16236       917  MEOH      DC1            -9.3957158044       -4.1062153976       17.2576335666  MEOH      225             0.0000000000
     16237       917  MEOH      O1             -9.1227482711       -2.8077726876       17.7604758903  MEOH      225             0.0000000000
     16238       917  MEOH      DO1            -9.0779873180       -2.8069911074       17.7658274172  MEOH      225             0.0000000000
     16239       917  MEOH      HO1            -9.5560537142       -2.2159018673       17.1257827951  MEOH      225             0.0000000000
     16240       917  MEOH      HO2            -9.4848102062       -2.8030614273       18.6603586387  MEOH      225             0.0000000000
     16241       917  MEOH      H1A            -9.4150524931       -4.8770236053       18.0413343114  MEOH      225             0.0000000000
     16242       917  MEOH      H1B            -8.7353054867       -4.3723962893       16.4110989365  MEOH      225             0.0000000000
     16243       917  MEOH      H1C           -10.4443330657       -4.0949329587       16.8053116074  MEOH      225             0.0000000000
     16244       917  MEOH      LP1A           -9.3697742661       -2.7098126409       17.9882520678  MEOH      225             0.0000000000
     16245       917  MEOH      LP1B           -8.8196483857       -2.6931645248       17.6282056045  MEOH      225             0.0000000000
     16246       918  MEOH      C1             -2.8816714317      -32.9154707564       25.0107946136  MEOH      226             0.0000000000
     16247       918  MEOH      DC1            -2.8769813415      -32.9128293467       25.0089850714  MEOH      226             0.0000000000
     16248       918  MEOH      O1             -4.1444575584      -33.0198925195       24.3554511924  MEOH      226             0.0000000000
     16249       918  MEOH      DO1            -4.1379256647      -33.0150970957       24.3558821717  MEOH      226             0.0000000000
     16250       918  MEOH      HO1            -4.7655281493      -33.4566822533       24.9590951692  MEOH      226             0.0000000000
     16251       918  MEOH      HO2            -4.3355574505      -32.1484748959       23.9746465752  MEOH      226             0.0000000000
     16252       918  MEOH      H1A            -2.1159310037      -32.5450081639       24.2961478015  MEOH      226             0.0000000000
     16253       918  MEOH      H1B            -2.5629200289      -33.9099705619       25.3898575115  MEOH      226             0.0000000000
     16254       918  MEOH      H1C            -2.9669228027      -32.2019239947       25.8580869024  MEOH      226             0.0000000000
     16255       918  MEOH      LP1A           -4.3356554836      -32.7334052565       24.4176476673  MEOH      226             0.0000000000
     16256       918  MEOH      LP1B           -4.1608092762      -33.3187380425       24.1740015446  MEOH      226             0.0000000000
     16257       919  MEOH      C1             -2.5703753299       11.5745381202       -5.3424451702  MEOH      227             0.0000000000
     16258       919  MEOH      DC1            -2.5535989215       11.5898802674       -5.3359542262  MEOH      227             0.0000000000
     16259       919  MEOH      O1             -3.0299215352       12.3068547845       -4.2016586235  MEOH      227             0.0000000000
     16260       919  MEOH      DO1            -3.0175533615       12.3213692073       -4.1910539186  MEOH      227             0.0000000000
     16261       919  MEOH      HO1            -3.9706230099       12.4653430229       -4.3773350700  MEOH      227             0.0000000000
     16262       919  MEOH      HO2            -2.7797846676       11.7817342851       -3.4253983521  MEOH      227             0.0000000000
     16263       919  MEOH      H1A            -1.5089461918       11.2709569144       -5.2178352237  MEOH      227             0.0000000000
     16264       919  MEOH      H1B            -2.6609965138       12.2039682161       -6.2534482196  MEOH      227             0.0000000000
     16265       919  MEOH      H1C            -3.1787491655       10.6559557771       -5.4853043841  MEOH      227             0.0000000000
     16266       919  MEOH      LP1A           -3.1387876347       12.0855963638       -3.9532781017  MEOH      227             0.0000000000
     16267       919  MEOH      LP1B           -2.9873732406       12.6501836367       -4.2547146493  MEOH      227             0.0000000000
     16268       920  MEOH      C1             11.2934993625        2.5633334773      -27.2326036003  MEOH      228             0.0000000000
     16269       920  MEOH      DC1            11.2864613999        2.5486754493      -27.2393003978  MEOH      228             0.0000000000
     16270       920  MEOH      O1             10.3259004551        1.7946391025      -27.9402395868  MEOH      228             0.0000000000
     16271       920  MEOH      DO1            10.3097895184        1.7907127015      -27.9316057465  MEOH      228             0.0000000000
     16272       920  MEOH      HO1            10.1983348752        0.9742490753      -27.4386548720  MEOH      228             0.0000000000
     16273       920  MEOH      HO2             9.5818076756        2.3884520860      -28.1262828001  MEOH      228             0.0000000000
     16274       920  MEOH      H1A            11.5785222742        3.4576040578      -27.8270470956  MEOH      228             0.0000000000
     16275       920  MEOH      H1B            12.2053635090        1.9654056734      -27.0197489091  MEOH      228             0.0000000000
     16276       920  MEOH      H1C            10.8539318113        2.8866901552      -26.2648526880  MEOH      228             0.0000000000
     16277       920  MEOH      LP1A           10.0039321980        1.8772928663      -27.8306731837  MEOH      228             0.0000000000
     16278       920  MEOH      LP1B           10.4844155610        1.5910215072      -28.1766985391  MEOH      228             0.0000000000
     16279       921  MEOH      C1              3.9537326179        4.5636418542       28.4838731114  MEOH      229             0.0000000000
     16280       921  MEOH      DC1             3.9685145205        4.5458421371       28.4874952318  MEOH      229             0.0000000000
     16281       921  MEOH      O1              5.2719632396        4.1681342672       28.0987024989  MEOH      229             0.0000000000
     16282       921  MEOH      DO1             5.2868946141        4.1573802864       28.0970445702  MEOH      229             0.0000000000
     16283       921  MEOH      HO1             5.8240940296        4.2500683588       28.8920110117  MEOH      229             0.0000000000
     16284       921  MEOH      HO2             5.1735713632        3.3354716426       27.6109607718  MEOH      229             0.0000000000
     16285       921  MEOH      H1A             3.2876806975        4.5634982022       27.5946623259  MEOH      229             0.0000000000
     16286       921  MEOH      H1B             3.9771929862        5.5845960536       28.9213924078  MEOH      229             0.0000000000
     16287       921  MEOH      H1C             3.5368111758        3.8591538964       29.2350017479  MEOH      229             0.0000000000
     16288       921  MEOH      LP1A            5.3107689555        3.8229689201       28.1417722054  MEOH      229             0.0000000000
     16289       921  MEOH      LP1B            5.4502816530        4.4451025963       27.9804185688  MEOH      229             0.0000000000
     16290       922  MEOH      C1            -31.6693508872       29.7851418710       34.2318445585  MEOH      230             0.0000000000
     16291       922  MEOH      DC1           -31.6608244504       29.7873370535       34.2333670937  MEOH      230             0.0000000000
     16292       922  MEOH      O1            -31.0030741401       29.5898010883       35.4811609936  MEOH      230             0.0000000000
     16293       922  MEOH      DO1           -31.0008207559       29.5797285345       35.4772922766  MEOH      230             0.0000000000
     16294       922  MEOH      HO1           -30.4035977558       30.3403378018       35.6161524980  MEOH      230             0.0000000000
     16295       922  MEOH      HO2           -31.7071824149       29.4241123419       36.1274417207  MEOH      230             0.0000000000
     16296       922  MEOH      H1A           -32.3773169528       28.9467133756       34.0582280038  MEOH      230             0.0000000000
     16297       922  MEOH      H1B           -30.9321015497       29.8049751773       33.4009468176  MEOH      230             0.0000000000
     16298       922  MEOH      H1C           -32.2549801029       30.7292035080       34.2421909471  MEOH      230             0.0000000000
     16299       922  MEOH      LP1A          -31.1901570195       29.7325994329       35.7402143260  MEOH      230             0.0000000000
     16300       922  MEOH      LP1B          -30.7101259116       29.4044576334       35.4328998377  MEOH      230             0.0000000000
     16301       923  MEOH      C1            -31.9565788638       33.4164806195       -2.2857602830  MEOH      231             0.0000000000
     16302       923  MEOH      DC1           -31.9570289725       33.4149361045       -2.2762909958  MEOH      231             0.0000000000
     16303       923  MEOH      O1            -31.0227449076       34.4957127297       -2.2600027003  MEOH      231             0.0000000000
     16304       923  MEOH      DO1           -31.0295538238       34.4975971595       -2.2534870351  MEOH      231             0.0000000000
     16305       923  MEOH      HO1           -31.3804745567       35.1925240177       -1.6878283151  MEOH      231             0.0000000000
     16306       923  MEOH      HO2           -30.1579839879       34.0960412129       -2.0773795036  MEOH      231             0.0000000000
     16307       923  MEOH      H1A           -31.6089214555       32.6618931988       -3.0233598706  MEOH      231             0.0000000000
     16308       923  MEOH      H1B           -32.9591271801       33.7820067698       -2.5949665360  MEOH      231             0.0000000000
     16309       923  MEOH      H1C           -32.0200739724       32.9305280406       -1.2886948572  MEOH      231             0.0000000000
     16310       923  MEOH      LP1A          -30.7910588828       34.4474108509       -2.0021490316  MEOH      231             0.0000000000
     16311       923  MEOH      LP1B          -31.0908727957       34.7192062947       -2.5205966705  MEOH      231             0.0000000000
     16312       924  MEOH      C1            -16.1475974520      -23.0878709370       25.3239208383  MEOH      232             0.0000000000
     16313       924  MEOH      DC1           -16.1448148669      -23.0821514242       25.3180503083  MEOH      232             0.0000000000
     16314       924  MEOH      O1            -17.1093221006      -22.0508084762       25.1561248616  MEOH      232             0.0000000000
     16315       924  MEOH      DO1           -17.1100277813      -22.0498348301       25.1571398696  MEOH      232             0.0000000000
     16316       924  MEOH      HO1           -16.6300831280      -21.2075738395       25.1425103583  MEOH      232             0.0000000000
     16317       924  MEOH      HO2           -17.6500370554      -22.3176495295       24.3963069944  MEOH      232             0.0000000000
     16318       924  MEOH      H1A           -16.6684290507      -24.0620226018       25.4425967879  MEOH      232             0.0000000000
     16319       924  MEOH      H1B           -15.5342520589      -22.9036285297       26.2317661801  MEOH      232             0.0000000000
     16320       924  MEOH      H1C           -15.4882467327      -23.1456462816       24.4315982293  MEOH      232             0.0000000000
     16321       924  MEOH      LP1A          -17.1625576559      -21.9908988491       24.8154243887  MEOH      232             0.0000000000
     16322       924  MEOH      LP1B          -17.2261422477      -21.9442195146       25.4683617052  MEOH      232             0.0000000000
     16323       925  MEOH      C1            -23.0895999812      -27.5993533958       -8.4560718007  MEOH      233             0.0000000000
     16324       925  MEOH      DC1           -23.1002247359      -27.6002697501       -8.4465371062  MEOH      233             0.0000000000
     16325       925  MEOH      O1            -22.0128785283      -26.8081035876       -7.9512157812  MEOH      233             0.0000000000
     16326       925  MEOH      DO1           -22.0220649445      -26.8164497087       -7.9456217693  MEOH      233             0.0000000000
     16327       925  MEOH      HO1           -21.3214750006      -26.7776360547       -8.6308722333  MEOH      233             0.0000000000
     16328       925  MEOH      HO2           -22.4119713339      -25.9744699008       -7.6568014327  MEOH      233             0.0000000000
     16329       925  MEOH      H1A           -23.8776258607      -27.6747216796       -7.6765489745  MEOH      233             0.0000000000
     16330       925  MEOH      H1B           -22.7376683880      -28.6231975495       -8.7054877248  MEOH      233             0.0000000000
     16331       925  MEOH      H1C           -23.5213673011      -27.1224403827       -9.3618598330  MEOH      233             0.0000000000
     16332       925  MEOH      LP1A          -22.0634967857      -26.4714036068       -8.0322769615  MEOH      233             0.0000000000
     16333       925  MEOH      LP1B          -21.7875952975      -27.0105080097       -7.7757737228  MEOH      233             0.0000000000
     16334       926  MEOH      C1             24.1372157406      -14.4061310908      -12.5904339787  MEOH      234             0.0000000000
     16335       926  MEOH      DC1            24.1374971434      -14.3955221747      -12.5949127162  MEOH      234             0.0000000000
     16336       926  MEOH      O1             24.1634923693      -15.6692625170      -11.9455523827  MEOH      234             0.0000000000
     16337       926  MEOH      DO1            24.1619709843      -15.6630916524      -11.9492918178  MEOH      234             0.0000000000
     16338       926  MEOH      HO1            24.4142863700      -15.5383619615      -11.0177229725  MEOH      234             0.0000000000
     16339       926  MEOH      HO2            23.3438550019      -16.1248404577      -12.1936316563  MEOH      234             0.0000000000
     16340       926  MEOH      H1A            24.0038737337      -14.5541240047      -13.6834294071  MEOH      234             0.0000000000
     16341       926  MEOH      H1B            25.0774565607      -13.8481859076      -12.3930374888  MEOH      234             0.0000000000
     16342       926  MEOH      H1C            23.2850652105      -13.8093724213      -12.2005114670  MEOH      234             0.0000000000
     16343       926  MEOH      LP1A           23.8472979367      -15.7437583392      -11.8152778521  MEOH      234             0.0000000000
     16344       926  MEOH      LP1B           24.4810612500      -15.8130434158      -11.9768103280  MEOH      234             0.0000000000
     16345       927  MEOH      C1            -20.7655197325       18.1595369024      -17.2207377196  MEOH      235             0.0000000000
     16346       927  MEOH      DC1           -20.7651285632       18.1639056143      -17.2215351629  MEOH      235             0.0000000000
     16347       927  MEOH      O1            -19.7644984196       17.3441191570      -16.6132017877  MEOH      235             0.0000000000
     16348       927  MEOH      DO1           -19.7633953542       17.3452945342      -16.6111054543  MEOH      235             0.0000000000
     16349       927  MEOH      HO1           -19.4243487937       16.7386588417      -17.2904137481  MEOH      235             0.0000000000
     16350       927  MEOH      HO2           -19.1802812123       17.9509491385      -16.1322156878  MEOH      235             0.0000000000
     16351       927  MEOH      H1A           -21.2731740255       18.7643986335      -16.4392325018  MEOH      235             0.0000000000
     16352       927  MEOH      H1B           -21.5220344789       17.5265900166      -17.7319956567  MEOH      235             0.0000000000
     16353       927  MEOH      H1C           -20.3002694965       18.8499418014      -17.9564036046  MEOH      235             0.0000000000
     16354       927  MEOH      LP1A          -19.4517794561       17.4991283818      -16.6392592266  MEOH      235             0.0000000000
     16355       927  MEOH      LP1B          -19.9109043887       17.0577151466      -16.4752234017  MEOH      235             0.0000000000
     16356       928  MEOH      C1             -2.1205782875      -16.8816129938       18.1932643013  MEOH      236             0.0000000000
     16357       928  MEOH      DC1            -2.1186531778      -16.9019728410       18.2041197045  MEOH      236             0.0000000000
     16358       928  MEOH      O1             -1.2365582110      -17.3207856541       17.1571399305  MEOH      236             0.0000000000
     16359       928  MEOH      DO1            -1.2344056822      -17.3441246915       17.1725414711  MEOH      236             0.0000000000
     16360       928  MEOH      HO1            -0.3190940450      -17.2777699480       17.4690840828  MEOH      236             0.0000000000
     16361       928  MEOH      HO2            -1.6279087113      -18.1080016434       16.7472182646  MEOH      236             0.0000000000
     16362       928  MEOH      H1A            -3.0993749404      -16.5998247120       17.7495600343  MEOH      236             0.0000000000
     16363       928  MEOH      H1B            -1.7002011908      -15.9965553631       18.7169790033  MEOH      236             0.0000000000
     16364       928  MEOH      H1C            -2.2969864202      -17.6968312758       18.9271718732  MEOH      236             0.0000000000
     16365       928  MEOH      LP1A           -1.1903694662      -17.6670967995       17.1780011484  MEOH      236             0.0000000000
     16366       928  MEOH      LP1B           -1.1438422489      -17.0497531106       16.9560302322  MEOH      236             0.0000000000
     16367       929  MEOH      C1            -16.7227275953      -31.7331679018       18.5991478699  MEOH      237             0.0000000000
     16368       929  MEOH      DC1           -16.7292178421      -31.7458422103       18.5974241770  MEOH      237             0.0000000000
     16369       929  MEOH      O1            -16.6499040667      -32.6987432007       17.5471945973  MEOH      237             0.0000000000
     16370       929  MEOH      DO1           -16.6587435889      -32.7066878998       17.5478044344  MEOH      237             0.0000000000
     16371       929  MEOH      HO1           -15.7133797459      -32.8242210263       17.3279287498  MEOH      237             0.0000000000
     16372       929  MEOH      HO2           -17.2117054888      -33.4433381257       17.8133854327  MEOH      237             0.0000000000
     16373       929  MEOH      H1A           -17.7779556007      -31.4170970128       18.7437647832  MEOH      237             0.0000000000
     16374       929  MEOH      H1B           -16.1196423789      -30.8358412047       18.3433862212  MEOH      237             0.0000000000
     16375       929  MEOH      H1C           -16.3387342328      -32.1690349847       19.5461906269  MEOH      237             0.0000000000
     16376       929  MEOH      LP1A          -16.6296949444      -33.0211721909       17.6818465101  MEOH      237             0.0000000000
     16377       929  MEOH      LP1B          -16.6693630416      -32.5389045379       17.2364327107  MEOH      237             0.0000000000
     16378       930  MEOH      C1            -25.8702407104      -10.3924044793        7.4432447832  MEOH      238             0.0000000000
     16379       930  MEOH      DC1           -25.8590772184      -10.3889108043        7.4402692042  MEOH      238             0.0000000000
     16380       930  MEOH      O1            -26.5224283820       -9.4551254729        8.3003865535  MEOH      238             0.0000000000
     16381       930  MEOH      DO1           -26.5123119915       -9.4512738839        8.2972534545  MEOH      238             0.0000000000
     16382       930  MEOH      HO1           -26.3108898436       -8.5599128977        7.9925783449  MEOH      238             0.0000000000
     16383       930  MEOH      HO2           -27.4494606545       -9.7390960790        8.3299138396  MEOH      238             0.0000000000
     16384       930  MEOH      H1A           -26.0320322787      -11.4159669425        7.8438248288  MEOH      238             0.0000000000
     16385       930  MEOH      H1B           -24.7819656764      -10.1765055292        7.3852267377  MEOH      238             0.0000000000
     16386       930  MEOH      H1C           -26.2917982771      -10.3414349629        6.4165937578  MEOH      238             0.0000000000
     16387       930  MEOH      LP1A          -26.8435126072       -9.3857336689        8.1795987319  MEOH      238             0.0000000000
     16388       930  MEOH      LP1B          -26.3150888236       -9.3760091706        8.5710356220  MEOH      238             0.0000000000
     16389       931  MEOH      C1             -2.4215280860        2.6817889481      -25.6202814367  MEOH      239             0.0000000000
     16390       931  MEOH      DC1            -2.4023390045        2.6847957957      -25.6177661995  MEOH      239             0.0000000000
     16391       931  MEOH      O1             -3.0690325464        2.0361201753      -26.7158279975  MEOH      239             0.0000000000
     16392       931  MEOH      DO1            -3.0532896375        2.0361602459      -26.7134735628  MEOH      239             0.0000000000
     16393       931  MEOH      HO1            -2.4081387342        1.7175689198      -27.3503707203  MEOH      239             0.0000000000
     16394       931  MEOH      HO2            -3.7209842077        1.4322321742      -26.3270114425  MEOH      239             0.0000000000
     16395       931  MEOH      H1A            -3.1729844874        3.2138940779      -24.9985914744  MEOH      239             0.0000000000
     16396       931  MEOH      H1B            -1.6711287329        3.4096097429      -25.9964445687  MEOH      239             0.0000000000
     16397       931  MEOH      H1C            -1.9568775671        1.9260554668      -24.9514856528  MEOH      239             0.0000000000
     16398       931  MEOH      LP1A           -3.1131094818        1.6961385242      -26.6453318934  MEOH      239             0.0000000000
     16399       931  MEOH      LP1B           -3.1438052103        2.2698994624      -26.9653401087  MEOH      239             0.0000000000
     16400       932  MEOH      C1            -12.4747238034       32.9693032444      -19.0420584305  MEOH      240             0.0000000000
     16401       932  MEOH      DC1           -12.4673588582       32.9766941237      -19.0522193154  MEOH      240             0.0000000000
     16402       932  MEOH      O1            -11.4898016448       31.9329873643      -19.0077843888  MEOH      240             0.0000000000
     16403       932  MEOH      DO1           -11.4807630114       31.9290497941      -19.0254183162  MEOH      240             0.0000000000
     16404       932  MEOH      HO1           -10.8817495175       32.1740354515      -18.2914964369  MEOH      240             0.0000000000
     16405       932  MEOH      HO2           -11.9994730673       31.1119733176      -18.9236952826  MEOH      240             0.0000000000
     16406       932  MEOH      H1A           -13.2928781396       32.7000531649      -19.7438054483  MEOH      240             0.0000000000
     16407       932  MEOH      H1B           -12.0013105207       33.9169109046      -19.3770816945  MEOH      240             0.0000000000
     16408       932  MEOH      H1C           -12.9074080378       33.1106454681      -18.0285853279  MEOH      240             0.0000000000
     16409       932  MEOH      LP1A          -11.5947410505       31.6750711128      -18.7957303194  MEOH      240             0.0000000000
     16410       932  MEOH      LP1B          -11.2252373433       32.0121247972      -19.2228262384  MEOH      240             0.0000000000
     16411       933  MEOH      C1             -3.2559105407       10.0772535269        5.5446539499  MEOH      241             0.0000000000
     16412       933  MEOH      DC1            -3.2491212603       10.0696975045        5.5388113837  MEOH      241             0.0000000000
     16413       933  MEOH      O1             -2.4705895272        9.0345382115        6.1242091119  MEOH      241             0.0000000000
     16414       933  MEOH      DO1            -2.4662193832        9.0303960167        6.1185596902  MEOH      241             0.0000000000
     16415       933  MEOH      HO1            -2.3249882327        8.3499091745        5.4526561758  MEOH      241             0.0000000000
     16416       933  MEOH      HO2            -1.7336616270        9.4645507367        6.5856487050  MEOH      241             0.0000000000
     16417       933  MEOH      H1A            -3.5425908833       10.7889303620        6.3481783521  MEOH      241             0.0000000000
     16418       933  MEOH      H1B            -4.1788287528        9.6673126950        5.0815216918  MEOH      241             0.0000000000
     16419       933  MEOH      H1C            -2.6670319129       10.6274533490        4.7799166633  MEOH      241             0.0000000000
     16420       933  MEOH      LP1A           -2.1300803177        9.1031172955        6.0811929815  MEOH      241             0.0000000000
     16421       933  MEOH      LP1B           -2.6791641637        8.7969126469        6.2743114506  MEOH      241             0.0000000000
     16422       934  MEOH      C1              2.1781463937       15.1792331898       26.0068044077  MEOH      242             0.0000000000
     16423       934  MEOH      DC1             2.1883673009       15.1977649375       26.0142557255  MEOH      242             0.0000000000
     16424       934  MEOH      O1              3.0919377716       16.0547518402       26.6665404397  MEOH      242             0.0000000000
     16425       934  MEOH      DO1             3.0898174644       16.0799087038       26.6639631291  MEOH      242             0.0000000000
     16426       934  MEOH      HO1             3.9115365526       16.0764179284       26.1481888028  MEOH      242             0.0000000000
     16427       934  MEOH      HO2             2.5993859684       16.8404865245       26.9509938226  MEOH      242             0.0000000000
     16428       934  MEOH      H1A             1.3771397062       14.8692996052       26.7115387267  MEOH      242             0.0000000000
     16429       934  MEOH      H1B             2.7061265077       14.2615291947       25.6700888355  MEOH      242             0.0000000000
     16430       934  MEOH      H1C             1.7106598304       15.6857640278       25.1354813761  MEOH      242             0.0000000000
     16431       934  MEOH      LP1A            3.0478076460       16.3824366146       26.5517570759  MEOH      242             0.0000000000
     16432       934  MEOH      LP1B            3.2815434290       15.8759475781       26.9001613517  MEOH      242             0.0000000000
     16433       935  MEOH      C1             -6.6594890525       34.9695413510      -35.9778432628  MEOH      243             0.0000000000
     16434       935  MEOH      DC1            -6.6510871575       34.9744076316      -35.9812799688  MEOH      243             0.0000000000
     16435       935  MEOH      O1             -5.7702797103       36.0386233830      -36.3113993425  MEOH      243             0.0000000000
     16436       935  MEOH      DO1            -5.7603535032       36.0424114392      -36.3140559921  MEOH      243             0.0000000000
     16437       935  MEOH      HO1            -6.2632083403       36.8703473713      -36.2329355055  MEOH      243             0.0000000000
     16438       935  MEOH      HO2            -4.9390661387       35.8753792259      -35.8388156531  MEOH      243             0.0000000000
     16439       935  MEOH      H1A            -6.2339727762       33.9908482370      -36.2867391799  MEOH      243             0.0000000000
     16440       935  MEOH      H1B            -7.6225528584       35.0893381773      -36.5186554540  MEOH      243             0.0000000000
     16441       935  MEOH      H1C            -6.8565176834       34.9699221444      -34.8844537736  MEOH      243             0.0000000000
     16442       935  MEOH      LP1A           -5.6016527403       36.1478984568      -36.0248266585  MEOH      243             0.0000000000
     16443       935  MEOH      LP1B           -5.7816087039       36.1007574075      -36.6556536336  MEOH      243             0.0000000000
     16444       936  MEOH      C1              8.6917209013        6.7668969253       -8.4676273391  MEOH      244             0.0000000000
     16445       936  MEOH      DC1             8.7003994204        6.7619980244       -8.4661034026  MEOH      244             0.0000000000
     16446       936  MEOH      O1              9.7690785981        7.6026331779       -8.8847863063  MEOH      244             0.0000000000
     16447       936  MEOH      DO1             9.7878569736        7.5882604180       -8.8845079369  MEOH      244             0.0000000000
     16448       936  MEOH      HO1            10.5067440782        7.0176099818       -9.1182333013  MEOH      244             0.0000000000
     16449       936  MEOH      HO2             9.3853149219        8.1762734913       -9.5663743293  MEOH      244             0.0000000000
     16450       936  MEOH      H1A             7.8002450229        7.3889990357       -8.2383224697  MEOH      244             0.0000000000
     16451       936  MEOH      H1B             8.9728952653        6.1887202652       -7.5615513342  MEOH      244             0.0000000000
     16452       936  MEOH      H1C             8.4317473139        6.0645952496       -9.2883021175  MEOH      244             0.0000000000
     16453       936  MEOH      LP1A            9.7471336778        7.6634664799       -9.2287597498  MEOH      244             0.0000000000
     16454       936  MEOH      LP1B            9.9654333229        7.6914122823       -8.6089909244  MEOH      244             0.0000000000
     16455       937  MEOH      C1             33.8311614674      -15.9921861880      -21.2883132385  MEOH      245             0.0000000000
     16456       937  MEOH      DC1            33.8369207904      -15.9899328528      -21.2723162146  MEOH      245             0.0000000000
     16457       937  MEOH      O1             32.9902141385      -16.5554491684      -22.2871621259  MEOH      245             0.0000000000
     16458       937  MEOH      DO1            32.9883745896      -16.5515003347      -22.2826889543  MEOH      245             0.0000000000
     16459       937  MEOH      HO1            32.4976677175      -15.8132033481      -22.6710490449  MEOH      245             0.0000000000
     16460       937  MEOH      HO2            33.5782205006      -17.0968232709      -22.8367643451  MEOH      245             0.0000000000
     16461       937  MEOH      H1A            34.3912701266      -16.7986749573      -20.7685294808  MEOH      245             0.0000000000
     16462       937  MEOH      H1B            33.2109449574      -15.4353539286      -20.5537451227  MEOH      245             0.0000000000
     16463       937  MEOH      H1C            34.5567526306      -15.2986553509      -21.7646045804  MEOH      245             0.0000000000
     16464       937  MEOH      LP1A           33.1589485039      -16.5661392731      -22.5936167484  MEOH      245             0.0000000000
     16465       937  MEOH      LP1B           32.6840169518      -16.6500295184      -22.1464573278  MEOH      245             0.0000000000
     16466       938  MEOH      C1            -26.0963373018      -11.2083651513      -14.0182744356  MEOH      246             0.0000000000
     16467       938  MEOH      DC1           -26.1006369806      -11.2059059686      -14.0192504087  MEOH      246             0.0000000000
     16468       938  MEOH      O1            -24.7511045719      -11.6944930217      -13.9979908944  MEOH      246             0.0000000000
     16469       938  MEOH      DO1           -24.7581709940      -11.6935163424      -13.9899055262  MEOH      246             0.0000000000
     16470       938  MEOH      HO1           -24.3469592950      -11.5403616214      -14.8662132784  MEOH      246             0.0000000000
     16471       938  MEOH      HO2           -24.3465541183      -11.3244545623      -13.1977968748  MEOH      246             0.0000000000
     16472       938  MEOH      H1A           -26.5995930530      -11.4686259197      -13.0625971986  MEOH      246             0.0000000000
     16473       938  MEOH      H1B           -26.6600873136      -11.6739444712      -14.8547807551  MEOH      246             0.0000000000
     16474       938  MEOH      H1C           -26.0996669546      -10.1041323883      -14.1406669143  MEOH      246             0.0000000000
     16475       938  MEOH      LP1A          -24.5342209758      -11.4420624169      -13.8896382503  MEOH      246             0.0000000000
     16476       938  MEOH      LP1B          -24.7441940319      -12.0315529805      -14.0920272099  MEOH      246             0.0000000000
     16477       939  MEOH      C1             -4.8574011489       27.6852569808      -21.3569843572  MEOH      247             0.0000000000
     16478       939  MEOH      DC1            -4.8672405869       27.6872365100      -21.3515997300  MEOH      247             0.0000000000
     16479       939  MEOH      O1             -6.1666280239       27.9036466856      -20.8254815719  MEOH      247             0.0000000000
     16480       939  MEOH      DO1            -6.1695005548       27.8949197174      -20.8293329458  MEOH      247             0.0000000000
     16481       939  MEOH      HO1            -6.6253843901       28.5447800898      -21.3906280613  MEOH      247             0.0000000000
     16482       939  MEOH      HO2            -6.5413712374       27.0279039058      -20.6423365246  MEOH      247             0.0000000000
     16483       939  MEOH      H1A            -4.2193432275       27.1610225225      -20.6137607542  MEOH      247             0.0000000000
     16484       939  MEOH      H1B            -4.3761371612       28.6541059610      -21.6100409305  MEOH      247             0.0000000000
     16485       939  MEOH      H1C            -4.9174394400       27.0533813090      -22.2688229059  MEOH      247             0.0000000000
     16486       939  MEOH      LP1A           -6.3912046100       27.6722492679      -20.9615719537  MEOH      247             0.0000000000
     16487       939  MEOH      LP1B           -6.1590729441       28.1641984538      -20.5919099623  MEOH      247             0.0000000000
     16488       940  MEOH      C1            -23.1824520693        6.2675526681      -19.2900592716  MEOH      248             0.0000000000
     16489       940  MEOH      DC1           -23.1826658698        6.2672189792      -19.3043107359  MEOH      248             0.0000000000
     16490       940  MEOH      O1            -24.3506196716        5.5582176583      -19.7130578330  MEOH      248             0.0000000000
     16491       940  MEOH      DO1           -24.3509893746        5.5589953787      -19.7272921824  MEOH      248             0.0000000000
     16492       940  MEOH      HO1           -24.7333698211        6.0260671259      -20.4716876497  MEOH      248             0.0000000000
     16493       940  MEOH      HO2           -24.0981269693        4.6233331227      -19.7690787297  MEOH      248             0.0000000000
     16494       940  MEOH      H1A           -22.8379164537        5.8570021406      -18.3168868953  MEOH      248             0.0000000000
     16495       940  MEOH      H1B           -23.4140119459        7.3456596650      -19.1544630757  MEOH      248             0.0000000000
     16496       940  MEOH      H1C           -22.3669423390        6.1461918663      -20.0347313042  MEOH      248             0.0000000000
     16497       940  MEOH      LP1A          -24.2638076022        5.3142073385      -19.9484779435  MEOH      248             0.0000000000
     16498       940  MEOH      LP1B          -24.6312550193        5.6758045667      -19.5400921700  MEOH      248             0.0000000000
     16499       941  MEOH      C1             34.3297954210      -16.5225757641        4.8351891370  MEOH      249             0.0000000000
     16500       941  MEOH      DC1            34.3309494671      -16.5204531048        4.8272763791  MEOH      249             0.0000000000
     16501       941  MEOH      O1             34.7732358616      -17.7677043339        4.3005859203  MEOH      249             0.0000000000
     16502       941  MEOH      DO1            34.7724956405      -17.7608189356        4.2890805642  MEOH      249             0.0000000000
     16503       941  MEOH      HO1            35.1467237943      -18.2845211846        5.0315490568  MEOH      249             0.0000000000
     16504       941  MEOH      HO2            34.0208487117      -18.1205846978        3.8002969777  MEOH      249             0.0000000000
     16505       941  MEOH      H1A            33.9378148159      -15.8963829171        4.0053971609  MEOH      249             0.0000000000
     16506       941  MEOH      H1B            35.1750797560      -15.9856225518        5.3163301165  MEOH      249             0.0000000000
     16507       941  MEOH      H1C            33.5211017300      -16.6826314474        5.5799828621  MEOH      249             0.0000000000
     16508       941  MEOH      LP1A           34.5127416825      -18.0012991105        4.3093187919  MEOH      249             0.0000000000
     16509       941  MEOH      LP1B           35.1046884910      -17.7399568909        4.1916399069  MEOH      249             0.0000000000
     16510       942  MEOH      C1             -8.9955592795       36.7634468544      -35.1053031230  MEOH      250             0.0000000000
     16511       942  MEOH      DC1            -8.9863594904       36.7585712716      -35.1066179048  MEOH      250             0.0000000000
     16512       942  MEOH      O1            -10.0552583335       36.5464821212      -36.0343937291  MEOH      250             0.0000000000
     16513       942  MEOH      DO1           -10.0554262217       36.5539790567      -36.0285247999  MEOH      250             0.0000000000
     16514       942  MEOH      HO1            -9.7623901430       36.7619905542      -36.9336625088  MEOH      250             0.0000000000
     16515       942  MEOH      HO2           -10.8407962059       36.9658832521      -35.6497732100  MEOH      250             0.0000000000
     16516       942  MEOH      H1A            -9.2407316082       37.4839923243      -34.2959665084  MEOH      250             0.0000000000
     16517       942  MEOH      H1B            -8.1172602584       37.1752772333      -35.6468818972  MEOH      250             0.0000000000
     16518       942  MEOH      H1C            -8.7835263848       35.7938468398      -34.6060648379  MEOH      250             0.0000000000
     16519       942  MEOH      LP1A          -10.0474664251       36.2161708191      -36.1498654999  MEOH      250             0.0000000000
     16520       942  MEOH      LP1B          -10.2478144333       36.8370024878      -36.0663321858  MEOH      250             0.0000000000
     16521       943  MEOH      C1            -35.8206240229       13.2651256783       -6.2985387415  MEOH      251             0.0000000000
     16522       943  MEOH      DC1           -35.8264813538       13.2652025452       -6.2965817189  MEOH      251             0.0000000000
     16523       943  MEOH      O1            -36.8424906833       12.4314079829       -5.7587126134  MEOH      251             0.0000000000
     16524       943  MEOH      DO1           -36.8476399691       12.4297991396       -5.7613528362  MEOH      251             0.0000000000
     16525       943  MEOH      HO1           -37.6270598749       12.5514766325       -6.3163278060  MEOH      251             0.0000000000
     16526       943  MEOH      HO2           -36.4372237565       11.5561384599       -5.6559411159  MEOH      251             0.0000000000
     16527       943  MEOH      H1A           -34.9254644597       13.2124263475       -5.6426171479  MEOH      251             0.0000000000
     16528       943  MEOH      H1B           -36.1653091711       14.3201893224       -6.3470553077  MEOH      251             0.0000000000
     16529       943  MEOH      H1C           -35.5263860918       12.9208475786       -7.3130423791  MEOH      251             0.0000000000
     16530       943  MEOH      LP1A          -36.8252803789       12.1127027486       -5.9023467984  MEOH      251             0.0000000000
     16531       943  MEOH      LP1B          -37.0241721891       12.6065247616       -5.5161720101  MEOH      251             0.0000000000
     16532       944  MEOH      C1             32.9354475775       -7.4994907000      -11.3937938351  MEOH      252             0.0000000000
     16533       944  MEOH      DC1            32.9383441527       -7.5167786309      -11.3891353305  MEOH      252             0.0000000000
     16534       944  MEOH      O1             32.0898756701       -6.8023676655      -10.4761599949  MEOH      252             0.0000000000
     16535       944  MEOH      DO1            32.0871098161       -6.8188537946      -10.4772477557  MEOH      252             0.0000000000
     16536       944  MEOH      HO1            31.3324035031       -6.4436996120      -10.9645175930  MEOH      252             0.0000000000
     16537       944  MEOH      HO2            31.9786496827       -7.3765866261       -9.7023374272  MEOH      252             0.0000000000
     16538       944  MEOH      H1A            33.9119553052       -7.7044572024      -10.9051811138  MEOH      252             0.0000000000
     16539       944  MEOH      H1B            33.1150632254       -6.8773392939      -12.2965600545  MEOH      252             0.0000000000
     16540       944  MEOH      H1C            32.4613763082       -8.4576990361      -11.6961416786  MEOH      252             0.0000000000
     16541       944  MEOH      LP1A           31.8550768270       -7.0225778959      -10.3387665537  MEOH      252             0.0000000000
     16542       944  MEOH      LP1B           32.1902144257       -6.4679836810      -10.4512705382  MEOH      252             0.0000000000
     16543       945  MEOH      C1            -19.9633004296      -27.0420487534       -1.6887447932  MEOH      253             0.0000000000
     16544       945  MEOH      DC1           -19.9547317727      -27.0347318202       -1.6700095060  MEOH      253             0.0000000000
     16545       945  MEOH      O1            -20.0774307235      -25.7576633486       -2.2783534995  MEOH      253             0.0000000000
     16546       945  MEOH      DO1           -20.0641987319      -25.7527254276       -2.2627134408  MEOH      253             0.0000000000
     16547       945  MEOH      HO1           -20.1736344618      -25.8961354509       -3.2335866216  MEOH      253             0.0000000000
     16548       945  MEOH      HO2           -20.8089134471      -25.3265730100       -1.8093181644  MEOH      253             0.0000000000
     16549       945  MEOH      H1A           -19.9612570442      -26.9293840744       -0.5834740144  MEOH      253             0.0000000000
     16550       945  MEOH      H1B           -19.0179009476      -27.5245242960       -2.0170101909  MEOH      253             0.0000000000
     16551       945  MEOH      H1C           -20.8321706428      -27.6722044119       -1.9756060820  MEOH      253             0.0000000000
     16552       945  MEOH      LP1A          -20.4133460936      -25.6598630057       -2.2881492659  MEOH      253             0.0000000000
     16553       945  MEOH      LP1B          -19.7598761028      -25.6337455791       -2.3577477643  MEOH      253             0.0000000000
     16554       946  MEOH      C1            -25.2804828057      -26.2603168756      -17.7052033057  MEOH      254             0.0000000000
     16555       946  MEOH      DC1           -25.2797413356      -26.2618784738      -17.6852274537  MEOH      254             0.0000000000
     16556       946  MEOH      O1            -24.4568261189      -25.6648164190      -16.7057901346  MEOH      254             0.0000000000
     16557       946  MEOH      DO1           -24.4477947707      -25.6661969484      -16.6904412178  MEOH      254             0.0000000000
     16558       946  MEOH      HO1           -23.7678652210      -25.1938252057      -17.2001585800  MEOH      254             0.0000000000
     16559       946  MEOH      HO2           -25.0662462989      -25.1814847926      -16.1262234145  MEOH      254             0.0000000000
     16560       946  MEOH      H1A           -26.1280325011      -26.8122477479      -17.2454720517  MEOH      254             0.0000000000
     16561       946  MEOH      H1B           -24.6869989197      -26.9691414224      -18.3213734452  MEOH      254             0.0000000000
     16562       946  MEOH      H1C           -25.6775666165      -25.4675858783      -18.3746979015  MEOH      254             0.0000000000
     16563       946  MEOH      LP1A          -24.5792318289      -25.3474736694      -16.6232648571  MEOH      254             0.0000000000
     16564       946  MEOH      LP1B          -24.2027584996      -25.8866360599      -16.6122717313  MEOH      254             0.0000000000
     16565       947  MEOH      C1            -19.1315372968      -32.0518351429        7.3361571565  MEOH      255             0.0000000000
     16566       947  MEOH      DC1           -19.1284901851      -32.0527164244        7.3481272539  MEOH      255             0.0000000000
     16567       947  MEOH      O1            -20.5404240136      -31.8938072839        7.1914559011  MEOH      255             0.0000000000
     16568       947  MEOH      DO1           -20.5409583342      -31.9002382430        7.1985189680  MEOH      255             0.0000000000
     16569       947  MEOH      HO1           -20.9251848954      -32.7837725426        7.1628045105  MEOH      255             0.0000000000
     16570       947  MEOH      HO2           -20.8112577961      -31.2490125283        7.8636082546  MEOH      255             0.0000000000
     16571       947  MEOH      H1A           -18.6327993441      -31.0665666215        7.2143893618  MEOH      255             0.0000000000
     16572       947  MEOH      H1B           -18.7439107845      -32.7419671903        6.5565518435  MEOH      255             0.0000000000
     16573       947  MEOH      H1C           -18.8978285321      -32.4651375933        8.3405884879  MEOH      255             0.0000000000
     16574       947  MEOH      LP1A          -20.6913025373      -31.8710193270        7.5064422184  MEOH      255             0.0000000000
     16575       947  MEOH      LP1B          -20.6249580108      -31.8786382653        6.8521567644  MEOH      255             0.0000000000
     16576       948  MEOH      C1            -15.5010381284        5.6276487349      -26.7281966980  MEOH      256             0.0000000000
     16577       948  MEOH      DC1           -15.5066579190        5.6217906643      -26.7303744087  MEOH      256             0.0000000000
     16578       948  MEOH      O1            -14.1581682772        5.4503155682      -27.1865403727  MEOH      256             0.0000000000
     16579       948  MEOH      DO1           -14.1595550847        5.4464741352      -27.1958731651  MEOH      256             0.0000000000
     16580       948  MEOH      HO1           -13.5874291251        5.6870002681      -26.4387856181  MEOH      256             0.0000000000
     16581       948  MEOH      HO2           -14.1210127124        4.5497951927      -27.5451244186  MEOH      256             0.0000000000
     16582       948  MEOH      H1A           -16.2242793899        5.3489496159      -27.5241677279  MEOH      256             0.0000000000
     16583       948  MEOH      H1B           -15.6850640554        6.6954649656      -26.4827910010  MEOH      256             0.0000000000
     16584       948  MEOH      H1C           -15.6752541241        4.9984485545      -25.8292657107  MEOH      256             0.0000000000
     16585       948  MEOH      LP1A          -14.0536705742        5.1216825814      -27.1267023410  MEOH      256             0.0000000000
     16586       948  MEOH      LP1B          -14.0417752728        5.7459372667      -27.3333752456  MEOH      256             0.0000000000
     16587       949  MEOH      C1            -11.3054428964       19.1198967536      -11.5384820026  MEOH      257             0.0000000000
     16588       949  MEOH      DC1           -11.2941738552       19.1228859430      -11.5558402691  MEOH      257             0.0000000000
     16589       949  MEOH      O1            -10.9277156953       19.0337346404      -10.1645704020  MEOH      257             0.0000000000
     16590       949  MEOH      DO1           -10.9199502548       19.0426375156      -10.1697877248  MEOH      257             0.0000000000
     16591       949  MEOH      HO1           -11.7339428474       19.2162921147       -9.6570563150  MEOH      257             0.0000000000
     16592       949  MEOH      HO2           -10.4827810083       18.1769513162      -10.0704669497  MEOH      257             0.0000000000
     16593       949  MEOH      H1A           -10.4164124436       18.9792580562      -12.1897627492  MEOH      257             0.0000000000
     16594       949  MEOH      H1B           -11.7377901037       20.1237996666      -11.7374187643  MEOH      257             0.0000000000
     16595       949  MEOH      H1C           -12.0649744349       18.3406606243      -11.7625888906  MEOH      257             0.0000000000
     16596       949  MEOH      LP1A          -10.9633501316       18.7045826071      -10.0510401158  MEOH      257             0.0000000000
     16597       949  MEOH      LP1B          -10.8179542485       19.3459943888      -10.0507887062  MEOH      257             0.0000000000
     16598       950  MEOH      C1             33.7545306803       -4.8699383241       -2.0868073775  MEOH      258             0.0000000000
     16599       950  MEOH      DC1            33.7503492249       -4.8709098533       -2.0904447040  MEOH      258             0.0000000000
     16600       950  MEOH      O1             32.5805109376       -4.0867075123       -2.3200205068  MEOH      258             0.0000000000
     16601       950  MEOH      DO1            32.5760533374       -4.0892378991       -2.3147557239  MEOH      258             0.0000000000
     16602       950  MEOH      HO1            32.8445513659       -3.3142614013       -2.8439572009  MEOH      258             0.0000000000
     16603       950  MEOH      HO2            31.9213658918       -4.7038054626       -2.6744467028  MEOH      258             0.0000000000
     16604       950  MEOH      H1A            33.5028375541       -5.7445772239       -1.4496430617  MEOH      258             0.0000000000
     16605       950  MEOH      H1B            34.5190009780       -4.2738548209       -1.5440453456  MEOH      258             0.0000000000
     16606       950  MEOH      H1C            34.1776459281       -5.2255740349       -3.0505592797  MEOH      258             0.0000000000
     16607       950  MEOH      LP1A           32.4219301594       -4.1931204794       -2.6133265197  MEOH      258             0.0000000000
     16608       950  MEOH      LP1B           32.5363480168       -3.8568082764       -2.0598359996  MEOH      258             0.0000000000
     16609       951  MEOH      C1            -11.4429115200       26.0251641521       -0.3654768132  MEOH      259             0.0000000000
     16610       951  MEOH      DC1           -11.4524156883       26.0390356229       -0.3669151637  MEOH      259             0.0000000000
     16611       951  MEOH      O1            -11.1770052382       27.0830790586       -1.2867678916  MEOH      259             0.0000000000
     16612       951  MEOH      DO1           -11.1822037141       27.0972352395       -1.2894810472  MEOH      259             0.0000000000
     16613       951  MEOH      HO1           -12.0222313466       27.5201952774       -1.4749758532  MEOH      259             0.0000000000
     16614       951  MEOH      HO2           -10.4295062109       27.5755354242       -0.9130943261  MEOH      259             0.0000000000
     16615       951  MEOH      H1A           -10.5139066203       25.4385934965       -0.2005351168  MEOH      259             0.0000000000
     16616       951  MEOH      H1B           -12.2167914735       25.3393354083       -0.7717645829  MEOH      259             0.0000000000
     16617       951  MEOH      H1C           -11.7873533155       26.4357953143        0.6076947546  MEOH      259             0.0000000000
     16618       951  MEOH      LP1A          -11.0985184342       27.3764446069       -1.1127665219  MEOH      259             0.0000000000
     16619       951  MEOH      LP1B          -11.1997655807       26.9643291051       -1.6152194335  MEOH      259             0.0000000000
     16620       952  MEOH      C1             -0.9393920790      -36.7790074310        9.4116613913  MEOH      260             0.0000000000
     16621       952  MEOH      DC1            -0.9565199779      -36.7767792814        9.4170426900  MEOH      260             0.0000000000
     16622       952  MEOH      O1             -1.8261823963      -35.7650265550        8.9464536969  MEOH      260             0.0000000000
     16623       952  MEOH      DO1            -1.8431569079      -35.7721190109        8.9417260569  MEOH      260             0.0000000000
     16624       952  MEOH      HO1            -1.2736265328      -35.0893336926        8.5233447569  MEOH      260             0.0000000000
     16625       952  MEOH      HO2            -2.5264928337      -36.2304732513        8.4628994971  MEOH      260             0.0000000000
     16626       952  MEOH      H1A            -1.5181993561      -37.4594169603       10.0722263093  MEOH      260             0.0000000000
     16627       952  MEOH      H1B            -0.1117366908      -36.3371958170       10.0067328634  MEOH      260             0.0000000000
     16628       952  MEOH      H1C            -0.5030183345      -37.3535562308        8.5667988985  MEOH      260             0.0000000000
     16629       952  MEOH      LP1A           -1.9335863429      -35.8396582231        8.6218084961  MEOH      260             0.0000000000
     16630       952  MEOH      LP1B           -1.8766868497      -35.5259745324        9.1970598235  MEOH      260             0.0000000000
     16631       953  MEOH      C1            -15.6381329483      -12.1158770940        4.6496601930  MEOH      261             0.0000000000
     16632       953  MEOH      DC1           -15.6545403656      -12.1368952243        4.6567760560  MEOH      261             0.0000000000
     16633       953  MEOH      O1            -16.5768205651      -13.0945827394        5.1037854809  MEOH      261             0.0000000000
     16634       953  MEOH      DO1           -16.5663072351      -13.1307552023        5.1226444142  MEOH      261             0.0000000000
     16635       953  MEOH      HO1           -16.8939966554      -12.7519506659        5.9540222660  MEOH      261             0.0000000000
     16636       953  MEOH      HO2           -17.2312252491      -13.1410125636        4.3892935069  MEOH      261             0.0000000000
     16637       953  MEOH      H1A           -15.4327927889      -12.2533531772        3.5664904254  MEOH      261             0.0000000000
     16638       953  MEOH      H1B           -14.6849388454      -12.2171028560        5.2113499199  MEOH      261             0.0000000000
     16639       953  MEOH      H1C           -16.0310706062      -11.0882459284        4.8042408682  MEOH      261             0.0000000000
     16640       953  MEOH      LP1A          -16.8963340725      -13.0194326595        4.9822799912  MEOH      261             0.0000000000
     16641       953  MEOH      LP1B          -16.4125294039      -13.3398054804        5.2918658405  MEOH      261             0.0000000000
     16642       954  MEOH      C1             15.5329329836       -4.5505655660      -26.0985651788  MEOH      262             0.0000000000
     16643       954  MEOH      DC1            15.5385155586       -4.5474912120      -26.0952188850  MEOH      262             0.0000000000
     16644       954  MEOH      O1             16.4217009089       -5.5982656190      -25.7260216404  MEOH      262             0.0000000000
     16645       954  MEOH      DO1            16.4261770093       -5.5920266817      -25.7054280641  MEOH      262             0.0000000000
     16646       954  MEOH      HO1            16.1147280611       -6.4076234546      -26.1637516550  MEOH      262             0.0000000000
     16647       954  MEOH      HO2            17.3114616810       -5.2685992327      -25.9273816220  MEOH      262             0.0000000000
     16648       954  MEOH      H1A            15.8400744150       -3.6194715785      -25.5760241471  MEOH      262             0.0000000000
     16649       954  MEOH      H1B            14.4951383693       -4.8127873281      -25.8010032751  MEOH      262             0.0000000000
     16650       954  MEOH      H1C            15.5665955658       -4.3860944318      -27.1968079009  MEOH      262             0.0000000000
     16651       954  MEOH      LP1A           16.6891339857       -5.6141339120      -25.9512498507  MEOH      262             0.0000000000
     16652       954  MEOH      LP1B           16.3097937655       -5.7512116867      -25.4317695519  MEOH      262             0.0000000000
     16653       955  MEOH      C1             -9.9346317250      -32.9030707279       26.5646063615  MEOH      263             0.0000000000
     16654       955  MEOH      DC1            -9.9285726667      -32.9093708714       26.5670054638  MEOH      263             0.0000000000
     16655       955  MEOH      O1             -9.4810420546      -34.1137566515       27.1626369314  MEOH      263             0.0000000000
     16656       955  MEOH      DO1            -9.4843204787      -34.1243216625       27.1590502465  MEOH      263             0.0000000000
     16657       955  MEOH      HO1            -8.5168628499      -34.1474060646       27.0620080178  MEOH      263             0.0000000000
     16658       955  MEOH      HO2            -9.8817886597      -34.1390280632       28.0456225004  MEOH      263             0.0000000000
     16659       955  MEOH      H1A           -11.0314930866      -32.8000790914       26.7081642807  MEOH      263             0.0000000000
     16660       955  MEOH      H1B            -9.7089183575      -32.9106454442       25.4768025643  MEOH      263             0.0000000000
     16661       955  MEOH      H1C            -9.4269511847      -32.0410608019       27.0478458022  MEOH      263             0.0000000000
     16662       955  MEOH      LP1A           -9.4128868128      -34.0614699100       27.5019317290  MEOH      263             0.0000000000
     16663       955  MEOH      LP1B           -9.4837737536      -34.3722029167       26.9266325547  MEOH      263             0.0000000000
     16664       956  MEOH      C1            -20.9668002838       24.8902094227       36.5736652849  MEOH      264             0.0000000000
     16665       956  MEOH      DC1           -20.9588041617       24.8866812403       36.5692654235  MEOH      264             0.0000000000
     16666       956  MEOH      O1            -20.7993448118       23.5815384458       37.1251892903  MEOH      264             0.0000000000
     16667       956  MEOH      DO1           -20.7956733192       23.5799180817       37.1176336290  MEOH      264             0.0000000000
     16668       956  MEOH      HO1           -21.2124918817       22.9425488430       36.5236065550  MEOH      264             0.0000000000
     16669       956  MEOH      HO2           -19.8651575628       23.5072289963       37.3755336320  MEOH      264             0.0000000000
     16670       956  MEOH      H1A           -20.6416955179       25.6495469277       37.3166554902  MEOH      264             0.0000000000
     16671       956  MEOH      H1B           -22.0350003225       25.0697874312       36.3266401523  MEOH      264             0.0000000000
     16672       956  MEOH      H1C           -20.3553664146       25.0004360423       35.6526225511  MEOH      264             0.0000000000
     16673       956  MEOH      LP1A          -20.4979638512       23.4424919730       37.0141235666  MEOH      264             0.0000000000
     16674       956  MEOH      LP1B          -21.0670955798       23.5059734071       37.3375556039  MEOH      264             0.0000000000
     16675       957  MEOH      C1            -21.6483213636      -11.3313625748      -35.5301936235  MEOH      265             0.0000000000
     16676       957  MEOH      DC1           -21.6544607318      -11.3308982839      -35.5256739141  MEOH      265             0.0000000000
     16677       957  MEOH      O1            -20.7820896883      -11.6355727000      -36.6194779152  MEOH      265             0.0000000000
     16678       957  MEOH      DO1           -20.7836599374      -11.6373025997      -36.6116360265  MEOH      265             0.0000000000
     16679       957  MEOH      HO1           -19.9812111382      -11.0984943276      -36.5144047477  MEOH      265             0.0000000000
     16680       957  MEOH      HO2           -20.7272075710      -12.6033284797      -36.6560388780  MEOH      265             0.0000000000
     16681       957  MEOH      H1A           -22.6398172915      -11.8106230079      -35.6770481899  MEOH      265             0.0000000000
     16682       957  MEOH      H1B           -21.7916559330      -10.2314503148      -35.4671918620  MEOH      265             0.0000000000
     16683       957  MEOH      H1C           -21.2234071570      -11.7113125974      -34.5765653430  MEOH      265             0.0000000000
     16684       957  MEOH      LP1A          -20.5751541937      -11.9052662696      -36.5361527714  MEOH      265             0.0000000000
     16685       957  MEOH      LP1B          -20.8511833771      -11.4244434376      -36.8899414002  MEOH      265             0.0000000000
     16686       958  MEOH      C1             11.5635362044      -14.6536277531      -23.9450917504  MEOH      266             0.0000000000
     16687       958  MEOH      DC1            11.5454536160      -14.6729513107      -23.9337153640  MEOH      266             0.0000000000
     16688       958  MEOH      O1             10.5481109773      -15.5186991798      -23.4426805400  MEOH      266             0.0000000000
     16689       958  MEOH      DO1            10.5343301918      -15.5166695364      -23.4230075831  MEOH      266             0.0000000000
     16690       958  MEOH      HO1             9.8778477387      -15.5762615057      -24.1414893620  MEOH      266             0.0000000000
     16691       958  MEOH      HO2            11.0164096519      -16.3166088540      -23.1512418597  MEOH      266             0.0000000000
     16692       958  MEOH      H1A            12.3546360546      -14.5213710364      -23.1763328879  MEOH      266             0.0000000000
     16693       958  MEOH      H1B            11.1345705624      -13.6588185050      -24.1913924568  MEOH      266             0.0000000000
     16694       958  MEOH      H1C            12.0362821293      -15.0803873596      -24.8554260466  MEOH      266             0.0000000000
     16695       958  MEOH      LP1A           10.6224563457      -15.8507668316      -23.5245575256  MEOH      266             0.0000000000
     16696       958  MEOH      LP1B           10.3091317999      -15.3332072059      -23.2666644033  MEOH      266             0.0000000000
     16697       959  MEOH      C1            -29.6112429818      -19.9055593309      -14.5418079310  MEOH      267             0.0000000000
     16698       959  MEOH      DC1           -29.6170855825      -19.9071782375      -14.5287257958  MEOH      267             0.0000000000
     16699       959  MEOH      O1            -29.8601138253      -20.3164198790      -13.1955686498  MEOH      267             0.0000000000
     16700       959  MEOH      DO1           -29.8680369501      -20.3223345053      -13.1893047601  MEOH      267             0.0000000000
     16701       959  MEOH      HO1           -29.7935814717      -21.2840183391      -13.1805131703  MEOH      267             0.0000000000
     16702       959  MEOH      HO2           -29.2469105775      -19.7968427953      -12.6525019589  MEOH      267             0.0000000000
     16703       959  MEOH      H1A           -29.6661027497      -18.7981203302      -14.6117383718  MEOH      267             0.0000000000
     16704       959  MEOH      H1B           -30.3706936761      -20.3297271738      -15.2329210075  MEOH      267             0.0000000000
     16705       959  MEOH      H1C           -28.6019898033      -20.2427612171      -14.8612197493  MEOH      267             0.0000000000
     16706       959  MEOH      LP1A          -29.5604402747      -20.3222241272      -13.0148421334  MEOH      267             0.0000000000
     16707       959  MEOH      LP1B          -30.2028991936      -20.3684673613      -13.1477225330  MEOH      267             0.0000000000
     16708       960  MEOH      C1            -31.9599313055       30.9510710267      -32.7376782321  MEOH      268             0.0000000000
     16709       960  MEOH      DC1           -31.9610239839       30.9493747261      -32.7337293196  MEOH      268             0.0000000000
     16710       960  MEOH      O1            -32.7116016768       32.0330575877      -32.1857374214  MEOH      268             0.0000000000
     16711       960  MEOH      DO1           -32.7224102337       32.0310211546      -32.1880413261  MEOH      268             0.0000000000
     16712       960  MEOH      HO1           -32.6939537346       32.7518191312      -32.8368675112  MEOH      268             0.0000000000
     16713       960  MEOH      HO2           -33.5435554019       31.6549019703      -31.8605431267  MEOH      268             0.0000000000
     16714       960  MEOH      H1A           -31.7715638450       30.1894387986      -31.9510683864  MEOH      268             0.0000000000
     16715       960  MEOH      H1B           -30.9863223810       31.3231515166      -33.1223375245  MEOH      268             0.0000000000
     16716       960  MEOH      H1C           -32.5293020436       30.4812652858      -33.5679917448  MEOH      268             0.0000000000
     16717       960  MEOH      LP1A          -33.0489277194       32.0015652381      -32.2735973830  MEOH      268             0.0000000000
     16718       960  MEOH      LP1B          -32.5023276837       32.2396640805      -31.9959529306  MEOH      268             0.0000000000
     16719       961  MEOH      C1             -1.0842552703        4.4539404723       31.3056451107  MEOH      269             0.0000000000
     16720       961  MEOH      DC1            -1.0618844072        4.4556167707       31.2808776039  MEOH      269             0.0000000000
     16721       961  MEOH      O1              0.2592733091        4.7087997610       30.9113016081  MEOH      269             0.0000000000
     16722       961  MEOH      DO1             0.2786902806        4.6950496073       30.8964290914  MEOH      269             0.0000000000
     16723       961  MEOH      HO1             0.2867554775        5.6758868966       30.8413930714  MEOH      269             0.0000000000
     16724       961  MEOH      HO2             0.7888820904        4.3233146116       31.6267145925  MEOH      269             0.0000000000
     16725       961  MEOH      H1A            -1.1997739379        3.3880568910       31.5969673192  MEOH      269             0.0000000000
     16726       961  MEOH      H1B            -1.7907469199        4.7046427310       30.4856823515  MEOH      269             0.0000000000
     16727       961  MEOH      H1C            -1.3480890073        5.0705625271       32.1913595130  MEOH      269             0.0000000000
     16728       961  MEOH      LP1A            0.4622463196        4.7449135982       31.1941403391  MEOH      269             0.0000000000
     16729       961  MEOH      LP1B            0.2844818076        4.7042865565       30.5622397760  MEOH      269             0.0000000000
     16730       962  MEOH      C1            -10.3772169259      -25.7158877334      -21.5892101523  MEOH      270             0.0000000000
     16731       962  MEOH      DC1           -10.3782325454      -25.7196925347      -21.5847943094  MEOH      270             0.0000000000
     16732       962  MEOH      O1             -9.0731223820      -25.4611084631      -22.1216208555  MEOH      270             0.0000000000
     16733       962  MEOH      DO1            -9.0711737427      -25.4651247373      -22.1151401846  MEOH      270             0.0000000000
     16734       962  MEOH      HO1            -8.6669130282      -24.7472258561      -21.6056115686  MEOH      270             0.0000000000
     16735       962  MEOH      HO2            -8.6412569437      -26.3216687426      -22.2392144325  MEOH      270             0.0000000000
     16736       962  MEOH      H1A           -10.9163315186      -26.4579742740      -22.2160945305  MEOH      270             0.0000000000
     16737       962  MEOH      H1B           -10.9644629384      -24.7738121507      -21.5449753564  MEOH      270             0.0000000000
     16738       962  MEOH      H1C           -10.3051481475      -26.1762401481      -20.5806454554  MEOH      270             0.0000000000
     16739       962  MEOH      LP1A           -8.8372305335      -25.6657726609      -21.9636094573  MEOH      270             0.0000000000
     16740       962  MEOH      LP1B           -9.0924978706      -25.2220551279      -22.3765288651  MEOH      270             0.0000000000
     16741       963  MEOH      C1             20.8070375486      -15.0148385749      -11.8913108555  MEOH      271             0.0000000000
     16742       963  MEOH      DC1            20.8028345687      -15.0056160304      -11.8900532302  MEOH      271             0.0000000000
     16743       963  MEOH      O1             19.4144954648      -15.0017548888      -12.1764535630  MEOH      271             0.0000000000
     16744       963  MEOH      DO1            19.4165194553      -14.9909971335      -12.1734159657  MEOH      271             0.0000000000
     16745       963  MEOH      HO1            18.9401864102      -15.4221261255      -11.4421382728  MEOH      271             0.0000000000
     16746       963  MEOH      HO2            19.1996792197      -14.1005996555      -12.4639830856  MEOH      271             0.0000000000
     16747       963  MEOH      H1A            21.3527779626      -14.7061166903      -12.8084690743  MEOH      271             0.0000000000
     16748       963  MEOH      H1B            21.1373009015      -16.0377090768      -11.6102716124  MEOH      271             0.0000000000
     16749       963  MEOH      H1C            21.0371163189      -14.3087865163      -11.0649481927  MEOH      271             0.0000000000
     16750       963  MEOH      LP1A           19.2704857337      -14.7062227028      -12.0563622460  MEOH      271             0.0000000000
     16751       963  MEOH      LP1B           19.3260588294      -15.2897901938      -12.3545395662  MEOH      271             0.0000000000
     16752       964  MEOH      C1            -10.7530714956       22.9094126851       -2.3609536680  MEOH      272             0.0000000000
     16753       964  MEOH      DC1           -10.7619419393       22.9065749582       -2.3530760611  MEOH      272             0.0000000000
     16754       964  MEOH      O1            -10.0226540765       24.1214472168       -2.5460649815  MEOH      272             0.0000000000
     16755       964  MEOH      DO1           -10.0307132748       24.1157054816       -2.5438682519  MEOH      272             0.0000000000
     16756       964  MEOH      HO1            -9.1136843648       23.8948899523       -2.7977510343  MEOH      272             0.0000000000
     16757       964  MEOH      HO2           -10.5656159621       24.6721782088       -3.1315457802  MEOH      272             0.0000000000
     16758       964  MEOH      H1A           -11.7744932738       23.1525188282       -1.9977485549  MEOH      272             0.0000000000
     16759       964  MEOH      H1B           -10.2464499972       22.2645160887       -1.6114444693  MEOH      272             0.0000000000
     16760       964  MEOH      H1C           -10.8344085274       22.3670440983       -3.3271532353  MEOH      272             0.0000000000
     16761       964  MEOH      LP1A          -10.0529239571       24.2300374699       -2.8774135762  MEOH      272             0.0000000000
     16762       964  MEOH      LP1B           -9.8792380725       24.2222412630       -2.2431253669  MEOH      272             0.0000000000
     16763       965  MEOH      C1             20.1472743825      -18.0134237879      -28.6969056297  MEOH      273             0.0000000000
     16764       965  MEOH      DC1            20.1343916366      -18.0132933573      -28.6965384127  MEOH      273             0.0000000000
     16765       965  MEOH      O1             19.7929604041      -19.3974122893      -28.6965238984  MEOH      273             0.0000000000
     16766       965  MEOH      DO1            19.7641827726      -19.3979609297      -28.7196524096  MEOH      273             0.0000000000
     16767       965  MEOH      HO1            18.8388298566      -19.4819711731      -28.5436033494  MEOH      273             0.0000000000
     16768       965  MEOH      HO2            20.2706218380      -19.8125896590      -29.4316206990  MEOH      273             0.0000000000
     16769       965  MEOH      H1A            21.2495518717      -17.9241989624      -28.5903961471  MEOH      273             0.0000000000
     16770       965  MEOH      H1B            19.6596875765      -17.4878827039      -27.8481496715  MEOH      273             0.0000000000
     16771       965  MEOH      H1C            19.8415482773      -17.5348077505      -29.6517769494  MEOH      273             0.0000000000
     16772       965  MEOH      LP1A           19.7155903477      -19.5012621665      -29.0216839780  MEOH      273             0.0000000000
     16773       965  MEOH      LP1B           19.8219184609      -19.5283042958      -28.3732148921  MEOH      273             0.0000000000
     16774       966  MEOH      C1            -28.0008024111       31.0013544636       31.4702412250  MEOH      274             0.0000000000
     16775       966  MEOH      DC1           -27.9979103764       30.9998623419       31.4720672654  MEOH      274             0.0000000000
     16776       966  MEOH      O1            -28.9548649595       31.8405672891       32.1211773076  MEOH      274             0.0000000000
     16777       966  MEOH      DO1           -28.9522138916       31.8383719260       32.1207802355  MEOH      274             0.0000000000
     16778       966  MEOH      HO1           -29.4518630970       31.2922894307       32.7483010923  MEOH      274             0.0000000000
     16779       966  MEOH      HO2           -28.4600725560       32.6144252105       32.4329855753  MEOH      274             0.0000000000
     16780       966  MEOH      H1A           -27.4524513204       31.6010630913       30.7126254612  MEOH      274             0.0000000000
     16781       966  MEOH      H1B           -28.5096522197       30.1531364285       30.9643568133  MEOH      274             0.0000000000
     16782       966  MEOH      H1C           -27.2727663046       30.6037489474       32.2092908046  MEOH      274             0.0000000000
     16783       966  MEOH      LP1A          -28.8127943537       31.9839376070       32.4071159285  MEOH      274             0.0000000000
     16784       966  MEOH      LP1B          -29.2532082709       31.8469035435       31.9382808330  MEOH      274             0.0000000000
     16785       967  MEOH      C1            -28.9163492972       24.1945404351      -32.7580530687  MEOH      275             0.0000000000
     16786       967  MEOH      DC1           -28.9036710429       24.1827115103      -32.7637729445  MEOH      275             0.0000000000
     16787       967  MEOH      O1            -27.4867114859       24.1342362439      -32.7390930637  MEOH      275             0.0000000000
     16788       967  MEOH      DO1           -27.4754119733       24.1219738190      -32.7439449245  MEOH      275             0.0000000000
     16789       967  MEOH      HO1           -27.2138833453       24.1598219390      -31.8086038489  MEOH      275             0.0000000000
     16790       967  MEOH      HO2           -27.2356045143       23.4050674710      -33.3274451601  MEOH      275             0.0000000000
     16791       967  MEOH      H1A           -29.2819597610       24.3048451855      -33.8013568843  MEOH      275             0.0000000000
     16792       967  MEOH      H1B           -29.2711331253       25.0714211265      -32.1753613077  MEOH      275             0.0000000000
     16793       967  MEOH      H1C           -29.3457839037       23.2742199905      -32.3075897512  MEOH      275             0.0000000000
     16794       967  MEOH      LP1A          -27.3810766140       23.8006789487      -32.7301039244  MEOH      275             0.0000000000
     16795       967  MEOH      LP1B          -27.3530334492       24.4572398771      -32.7563799218  MEOH      275             0.0000000000
     16796       968  MEOH      C1            -22.8329111691       31.9618906911      -17.4422780039  MEOH      276             0.0000000000
     16797       968  MEOH      DC1           -22.8435381811       31.9610507186      -17.4412513548  MEOH      276             0.0000000000
     16798       968  MEOH      O1            -23.9912986904       31.6621998522      -18.2236638780  MEOH      276             0.0000000000
     16799       968  MEOH      DO1           -23.9980498676       31.6459363533      -18.2134340411  MEOH      276             0.0000000000
     16800       968  MEOH      HO1           -23.7096109558       31.1187155801      -18.9761111302  MEOH      276             0.0000000000
     16801       968  MEOH      HO2           -24.6959992613       31.3986243412      -17.6114343006  MEOH      276             0.0000000000
     16802       968  MEOH      H1A           -23.0530012125       32.8145247238      -16.7648589467  MEOH      276             0.0000000000
     16803       968  MEOH      H1B           -21.9855551188       32.2408520358      -18.1044632450  MEOH      276             0.0000000000
     16804       968  MEOH      H1C           -22.5460997183       31.0826302033      -16.8266797691  MEOH      276             0.0000000000
     16805       968  MEOH      LP1A          -24.1412127349       31.3680273948      -18.1075245455  MEOH      276             0.0000000000
     16806       968  MEOH      LP1B          -24.0419466830       31.9121469522      -18.4633745955  MEOH      276             0.0000000000
     16807       969  MEOH      C1             19.0598451761        8.0100581955      -26.3137966344  MEOH      277             0.0000000000
     16808       969  MEOH      DC1            19.0691555537        8.0137747053      -26.3145004032  MEOH      277             0.0000000000
     16809       969  MEOH      O1             20.2931426108        8.3592959344      -26.9046853386  MEOH      277             0.0000000000
     16810       969  MEOH      DO1            20.3051543286        8.3573905041      -26.9049723787  MEOH      277             0.0000000000
     16811       969  MEOH      HO1            20.1672878897        8.2376239700      -27.8587589848  MEOH      277             0.0000000000
     16812       969  MEOH      HO2            20.5162087796        9.2363116614      -26.5554219701  MEOH      277             0.0000000000
     16813       969  MEOH      H1A            19.1384478535        8.0886658263      -25.2083720737  MEOH      277             0.0000000000
     16814       969  MEOH      H1B            18.8061809665        6.9653646924      -26.5941374184  MEOH      277             0.0000000000
     16815       969  MEOH      H1C            18.2576303748        8.6922558980      -26.6678851934  MEOH      277             0.0000000000
     16816       969  MEOH      LP1A           20.2989306713        8.7018929769      -26.9760559544  MEOH      277             0.0000000000
     16817       969  MEOH      LP1B           20.5008816577        8.0782208796      -26.9231596981  MEOH      277             0.0000000000
     16818       970  MEOH      C1             -4.0545205550       29.6401472209       35.6953458559  MEOH      278             0.0000000000
     16819       970  MEOH      DC1            -4.0545061652       29.6430203488       35.6805881502  MEOH      278             0.0000000000
     16820       970  MEOH      O1             -3.7977909576       30.8659721994       35.0134481578  MEOH      278             0.0000000000
     16821       970  MEOH      DO1            -3.7846131509       30.8656652680       34.9978990218  MEOH      278             0.0000000000
     16822       970  MEOH      HO1            -3.2463622209       30.6740868570       34.2388473808  MEOH      278             0.0000000000
     16823       970  MEOH      HO2            -4.6524021644       31.3179295875       34.9342382782  MEOH      278             0.0000000000
     16824       970  MEOH      H1A            -4.7038919624       29.8744443194       36.5658299999  MEOH      278             0.0000000000
     16825       970  MEOH      H1B            -3.1216918679       29.1782248660       36.0836490634  MEOH      278             0.0000000000
     16826       970  MEOH      H1C            -4.5889285456       28.9280573818       35.0307729393  MEOH      278             0.0000000000
     16827       970  MEOH      LP1A           -4.0498714322       30.9273409503       34.7785241048  MEOH      278             0.0000000000
     16828       970  MEOH      LP1B           -3.5087985800       31.0160639625       35.1417285865  MEOH      278             0.0000000000
     16829       971  MEOH      C1            -25.8425413515        4.7506569858       25.2126829258  MEOH      279             0.0000000000
     16830       971  MEOH      DC1           -25.8476991723        4.7505694691       25.2205012493  MEOH      279             0.0000000000
     16831       971  MEOH      O1            -25.8822343122        5.6376404232       26.3235942363  MEOH      279             0.0000000000
     16832       971  MEOH      DO1           -25.8921421398        5.6422824403       26.3287335516  MEOH      279             0.0000000000
     16833       971  MEOH      HO1           -26.2601825757        5.1443141393       27.0683655353  MEOH      279             0.0000000000
     16834       971  MEOH      HO2           -24.9777703586        5.9772244980       26.4103560559  MEOH      279             0.0000000000
     16835       971  MEOH      H1A           -25.3918111033        5.2448443787       24.3255853743  MEOH      279             0.0000000000
     16836       971  MEOH      H1B           -26.8821494773        4.4720872011       24.9371201905  MEOH      279             0.0000000000
     16837       971  MEOH      H1C           -25.2508205664        3.8432722162       25.4593413785  MEOH      279             0.0000000000
     16838       971  MEOH      LP1A          -25.5818945593        5.6191270922       26.5023490666  MEOH      279             0.0000000000
     16839       971  MEOH      LP1B          -26.1846757078        5.8137823134       26.3253933333  MEOH      279             0.0000000000
     16840       972  MEOH      C1            -17.4389225009       28.1728087439      -21.7441257894  MEOH      280             0.0000000000
     16841       972  MEOH      DC1           -17.4373963194       28.1687298836      -21.7439041896  MEOH      280             0.0000000000
     16842       972  MEOH      O1            -16.2832359834       28.5596659703      -21.0222272078  MEOH      280             0.0000000000
     16843       972  MEOH      DO1           -16.2801726672       28.5634863012      -21.0448965915  MEOH      280             0.0000000000
     16844       972  MEOH      HO1           -15.5234332289       27.9927588390      -21.2276927279  MEOH      280             0.0000000000
     16845       972  MEOH      HO2           -16.2474507224       29.5286823045      -20.9971920488  MEOH      280             0.0000000000
     16846       972  MEOH      H1A           -18.3255468188       28.6089644141      -21.2362020248  MEOH      280             0.0000000000
     16847       972  MEOH      H1B           -17.5395620031       27.0668171383      -21.7753549258  MEOH      280             0.0000000000
     16848       972  MEOH      H1C           -17.3636632486       28.5782354667      -22.7757682753  MEOH      280             0.0000000000
     16849       972  MEOH      LP1A          -16.1035288349       28.7992077957      -21.2034040681  MEOH      280             0.0000000000
     16850       972  MEOH      LP1B          -16.2735455390       28.3939922414      -20.7140741439  MEOH      280             0.0000000000
     16851       973  MEOH      C1            -30.0075814998       34.6765436659        1.1550813770  MEOH      281             0.0000000000
     16852       973  MEOH      DC1           -30.0140565969       34.6686328397        1.1625523009  MEOH      281             0.0000000000
     16853       973  MEOH      O1            -28.7793302645       34.6425585086        0.4254400269  MEOH      281             0.0000000000
     16854       973  MEOH      DO1           -28.7829369769       34.6403977129        0.4377391902  MEOH      281             0.0000000000
     16855       973  MEOH      HO1           -28.0896360920       35.0640615822        0.9616835424  MEOH      281             0.0000000000
     16856       973  MEOH      HO2           -28.6729325397       33.7306406256        0.1124139912  MEOH      281             0.0000000000
     16857       973  MEOH      H1A           -30.8248189886       34.2962237600        0.5056195556  MEOH      281             0.0000000000
     16858       973  MEOH      H1B           -30.2503301274       35.7158756938        1.4635988644  MEOH      281             0.0000000000
     16859       973  MEOH      H1C           -29.9294444299       34.0274083853        2.0533235413  MEOH      281             0.0000000000
     16860       973  MEOH      LP1A          -28.6066820225       34.3462555867        0.4954197601  MEOH      281             0.0000000000
     16861       973  MEOH      LP1B          -28.7514978377       34.9278133730        0.2245544416  MEOH      281             0.0000000000
     16862       974  MEOH      C1             -5.0177271289       14.2589173876        2.9824302075  MEOH      282             0.0000000000
     16863       974  MEOH      DC1            -5.0064051413       14.2695499793        2.9913079537  MEOH      282             0.0000000000
     16864       974  MEOH      O1             -5.5373465459       15.5878681018        2.8790395352  MEOH      282             0.0000000000
     16865       974  MEOH      DO1            -5.5465702000       15.6007387804        2.8897272774  MEOH      282             0.0000000000
     16866       974  MEOH      HO1            -5.8777786677       15.6454776417        1.9725699478  MEOH      282             0.0000000000
     16867       974  MEOH      HO2            -6.1171890235       15.7075144082        3.6473932705  MEOH      282             0.0000000000
     16868       974  MEOH      H1A            -4.5255773582       14.0986438134        3.9654978474  MEOH      282             0.0000000000
     16869       974  MEOH      H1B            -4.2864576061       14.0879761310        2.1636842311  MEOH      282             0.0000000000
     16870       974  MEOH      H1C            -5.8470785896       13.5280150145        2.8716201164  MEOH      282             0.0000000000
     16871       974  MEOH      LP1A           -5.8726563306       15.5934252542        2.9792217009  MEOH      282             0.0000000000
     16872       974  MEOH      LP1B           -5.2859082713       15.8067548175        2.7724215264  MEOH      282             0.0000000000
     16873       975  MEOH      C1            -36.5061422400      -21.7907872113      -20.3651762281  MEOH      283             0.0000000000
     16874       975  MEOH      DC1           -36.5233586129      -21.7818724060      -20.3412438200  MEOH      283             0.0000000000
     16875       975  MEOH      O1            -36.6210222307      -21.5927567586      -21.7630224684  MEOH      283             0.0000000000
     16876       975  MEOH      DO1           -36.6161623850      -21.5871649230      -21.7396591282  MEOH      283             0.0000000000
     16877       975  MEOH      HO1           -37.4844703394      -21.8983171007      -22.0823815797  MEOH      283             0.0000000000
     16878       975  MEOH      HO2           -36.3626890543      -20.6719871909      -21.9253412080  MEOH      283             0.0000000000
     16879       975  MEOH      H1A           -35.4927141611      -21.4844366136      -20.0283768211  MEOH      283             0.0000000000
     16880       975  MEOH      H1B           -36.6651932630      -22.8625054977      -20.1193232501  MEOH      283             0.0000000000
     16881       975  MEOH      H1C           -37.2715446961      -21.1473394969      -19.8809705686  MEOH      283             0.0000000000
     16882       975  MEOH      LP1A          -36.7508869196      -21.2744158558      -21.8285528601  MEOH      283             0.0000000000
     16883       975  MEOH      LP1B          -36.5000038115      -21.8731553583      -21.9339937159  MEOH      283             0.0000000000
     16884       976  MEOH      C1             -0.6338774600        0.1426950984        1.7170327666  MEOH      284             0.0000000000
     16885       976  MEOH      DC1            -0.6093438326        0.1427906617        1.7219426439  MEOH      284             0.0000000000
     16886       976  MEOH      O1             -1.1697214720       -0.9331769451        0.9516180914  MEOH      284             0.0000000000
     16887       976  MEOH      DO1            -1.1480461700       -0.9305345800        0.9690273892  MEOH      284             0.0000000000
     16888       976  MEOH      HO1            -2.0108243722       -1.2062358867        1.3502215619  MEOH      284             0.0000000000
     16889       976  MEOH      HO2            -1.1762091170       -0.6099757291        0.0370696321  MEOH      284             0.0000000000
     16890       976  MEOH      H1A             0.3337420493        0.4381044363        1.2579393030  MEOH      284             0.0000000000
     16891       976  MEOH      H1B            -0.4750405160       -0.1735682711        2.7701563625  MEOH      284             0.0000000000
     16892       976  MEOH      H1C            -1.3123172925        1.0220847648        1.6903080787  MEOH      284             0.0000000000
     16893       976  MEOH      LP1A           -1.3702645570       -0.8081668812        0.6934418823  MEOH      284             0.0000000000
     16894       976  MEOH      LP1B           -1.0501568383       -1.2384477899        1.0741497596  MEOH      284             0.0000000000
     16895       977  MEOH      C1            -36.5038335964      -31.0630188783       35.9313130790  MEOH      285             0.0000000000
     16896       977  MEOH      DC1           -36.5011786659      -31.0788462599       35.9383157610  MEOH      285             0.0000000000
     16897       977  MEOH      O1            -36.5504136457      -31.4202993470       37.3117032207  MEOH      285             0.0000000000
     16898       977  MEOH      DO1           -36.5455881425      -31.4429220960       37.3043225990  MEOH      285             0.0000000000
     16899       977  MEOH      HO1           -37.4772356177      -31.5244021263       37.5782808724  MEOH      285             0.0000000000
     16900       977  MEOH      HO2           -35.8823749314      -32.1101897967       37.4483613475  MEOH      285             0.0000000000
     16901       977  MEOH      H1A           -35.4661568353      -30.7754806386       35.6576897975  MEOH      285             0.0000000000
     16902       977  MEOH      H1B           -37.1535579184      -30.1803583433       35.7494073701  MEOH      285             0.0000000000
     16903       977  MEOH      H1C           -36.8424827947      -31.9010653107       35.2853131579  MEOH      285             0.0000000000
     16904       977  MEOH      LP1A          -36.5364171527      -31.7683524418       37.3458080795  MEOH      285             0.0000000000
     16905       977  MEOH      LP1B          -36.5607611261      -31.1318862514       37.5097204319  MEOH      285             0.0000000000
     16906       978  MEOH      C1             23.8956874867       11.1817223800       -1.7573729046  MEOH      286             0.0000000000
     16907       978  MEOH      DC1            23.8837684021       11.1769055594       -1.7347750818  MEOH      286             0.0000000000
     16908       978  MEOH      O1             24.8073595930       12.0135077163       -1.0461622951  MEOH      286             0.0000000000
     16909       978  MEOH      DO1            24.8013249738       12.0095616676       -1.0373845430  MEOH      286             0.0000000000
     16910       978  MEOH      HO1            25.2935669491       12.5151979605       -1.7190733633  MEOH      286             0.0000000000
     16911       978  MEOH      HO2            24.2857386022       12.4692444170       -0.3671073617  MEOH      286             0.0000000000
     16912       978  MEOH      H1A            23.3582440775       10.5134385322       -1.0510639911  MEOH      286             0.0000000000
     16913       978  MEOH      H1B            24.4497612812       10.5500342315       -2.4842107910  MEOH      286             0.0000000000
     16914       978  MEOH      H1C            23.1677456810       11.8169371044       -2.3059382910  MEOH      286             0.0000000000
     16915       978  MEOH      LP1A           24.6550532936       12.3188622690       -0.9683073767  MEOH      286             0.0000000000
     16916       978  MEOH      LP1B           25.1090296159       11.8437132973       -0.9945381479  MEOH      286             0.0000000000
     16917       979  MEOH      C1             14.7696051462      -36.6999406002       -8.2288837525  MEOH      287             0.0000000000
     16918       979  MEOH      DC1            14.7827300612      -36.6981574920       -8.2353619747  MEOH      287             0.0000000000
     16919       979  MEOH      O1             14.4017454717      -35.4811156141       -7.5768523094  MEOH      287             0.0000000000
     16920       979  MEOH      DO1            14.4137283915      -35.4625907307       -7.5840717636  MEOH      287             0.0000000000
     16921       979  MEOH      HO1            13.4329336537      -35.4643620438       -7.6218298521  MEOH      287             0.0000000000
     16922       979  MEOH      HO2            14.8390280370      -35.5117432335       -6.7115512591  MEOH      287             0.0000000000
     16923       979  MEOH      H1A            15.8698708853      -36.8534882986       -8.2162580720  MEOH      287             0.0000000000
     16924       979  MEOH      H1B            14.4172530565      -36.6653452975       -9.2819612292  MEOH      287             0.0000000000
     16925       979  MEOH      H1C            14.2696257091      -37.5512413645       -7.7193461463  MEOH      287             0.0000000000
     16926       979  MEOH      LP1A           14.3604048760      -35.5366466168       -7.2337673886  MEOH      287             0.0000000000
     16927       979  MEOH      LP1B           14.3925942201      -35.2192551684       -7.8088983427  MEOH      287             0.0000000000
     16928       980  MEOH      C1            -28.9200334323        3.3030230809        8.3999694701  MEOH      288             0.0000000000
     16929       980  MEOH      DC1           -28.9210953395        3.2968465850        8.3705854923  MEOH      288             0.0000000000
     16930       980  MEOH      O1            -28.0748650843        3.2481421825        7.2495423928  MEOH      288             0.0000000000
     16931       980  MEOH      DO1           -28.0769360573        3.2427760591        7.2155847936  MEOH      288             0.0000000000
     16932       980  MEOH      HO1           -27.1867708357        3.3856780274        7.6146074539  MEOH      288             0.0000000000
     16933       980  MEOH      HO2           -28.3214676675        2.4407695992        6.7718011683  MEOH      288             0.0000000000
     16934       980  MEOH      H1A           -29.9851978204        3.2055670919        8.0995561608  MEOH      288             0.0000000000
     16935       980  MEOH      H1B           -28.7903321625        4.2791138471        8.9145036277  MEOH      288             0.0000000000
     16936       980  MEOH      H1C           -28.6591121652        2.4874067274        9.1077908156  MEOH      288             0.0000000000
     16937       980  MEOH      LP1A          -27.9749110506        2.9180321698        7.1900733198  MEOH      288             0.0000000000
     16938       980  MEOH      LP1B          -28.0423571690        3.5672750940        7.1095516064  MEOH      288             0.0000000000
     16939       981  MEOH      C1             17.0126433839       18.6941202256       -4.3353481388  MEOH      289             0.0000000000
     16940       981  MEOH      DC1            17.0231934812       18.7084087427       -4.3614306049  MEOH      289             0.0000000000
     16941       981  MEOH      O1             17.2568374307       19.3728585744       -3.1003969381  MEOH      289             0.0000000000
     16942       981  MEOH      DO1            17.2698711214       19.3874466653       -3.1148849667  MEOH      289             0.0000000000
     16943       981  MEOH      HO1            16.7467091022       20.1978820571       -3.1027081027  MEOH      289             0.0000000000
     16944       981  MEOH      HO2            17.0445825477       18.7176018265       -2.4173987978  MEOH      289             0.0000000000
     16945       981  MEOH      H1A            17.4872103207       17.6902773426       -4.2978422595  MEOH      289             0.0000000000
     16946       981  MEOH      H1B            17.4486358900       19.2689697001       -5.1802029293  MEOH      289             0.0000000000
     16947       981  MEOH      H1C            15.9206354786       18.5577641543       -4.4878170103  MEOH      289             0.0000000000
     16948       981  MEOH      LP1A           17.0261992716       19.2683984661       -2.8587481737  MEOH      289             0.0000000000
     16949       981  MEOH      LP1B           17.5353512979       19.5824516710       -3.1320317231  MEOH      289             0.0000000000
     16950       982  MEOH      C1            -18.7600238877       16.6812555637        4.2537599167  MEOH      290             0.0000000000
     16951       982  MEOH      DC1           -18.7804774935       16.6708769272        4.2513266636  MEOH      290             0.0000000000
     16952       982  MEOH      O1            -18.6899972506       18.0900874590        4.4545497566  MEOH      290             0.0000000000
     16953       982  MEOH      DO1           -18.6949827469       18.0821018081        4.4587330477  MEOH      290             0.0000000000
     16954       982  MEOH      HO1           -19.5979386586       18.4216912565        4.5356750988  MEOH      290             0.0000000000
     16955       982  MEOH      HO2           -18.0533473927       18.2195658728        5.1748360191  MEOH      290             0.0000000000
     16956       982  MEOH      H1A           -17.7377462447       16.2796522463        4.0864751395  MEOH      290             0.0000000000
     16957       982  MEOH      H1B           -19.3905153572       16.4472364836        3.3694315970  MEOH      290             0.0000000000
     16958       982  MEOH      H1C           -19.1842483644       16.2096494519        5.1658686111  MEOH      290             0.0000000000
     16959       982  MEOH      LP1A          -18.6664694574       18.1612556138        4.7964291750  MEOH      290             0.0000000000
     16960       982  MEOH      LP1B          -18.6902996378       18.2551523778        4.1459181297  MEOH      290             0.0000000000
     16961       983  MEOH      C1            -12.0728795325       17.9236116397      -36.5945172716  MEOH      291             0.0000000000
     16962       983  MEOH      DC1           -12.0741664969       17.9449869294      -36.5953884852  MEOH      291             0.0000000000
     16963       983  MEOH      O1            -11.1307783932       18.8872906023      -37.0617768171  MEOH      291             0.0000000000
     16964       983  MEOH      DO1           -11.1600682460       18.9198877318      -37.0582259449  MEOH      291             0.0000000000
     16965       983  MEOH      HO1           -10.7077984985       19.2751871444      -36.2797766367  MEOH      291             0.0000000000
     16966       983  MEOH      HO2           -10.5466308924       18.3758784537      -37.6432656919  MEOH      291             0.0000000000
     16967       983  MEOH      H1A           -12.3937056817       17.2429612931      -37.4118952060  MEOH      291             0.0000000000
     16968       983  MEOH      H1B           -12.9840818611       18.4358053239      -36.2181013468  MEOH      291             0.0000000000
     16969       983  MEOH      H1C           -11.6106143570       17.3062704478      -35.7948162269  MEOH      291             0.0000000000
     16970       983  MEOH      LP1A          -10.8206980224       18.7346091483      -37.1168997455  MEOH      291             0.0000000000
     16971       983  MEOH      LP1B          -11.2856342331       19.1993062228      -37.0959224086  MEOH      291             0.0000000000
     16972       984  MEOH      C1            -27.4128935537       10.6407212896       21.3165328799  MEOH      292             0.0000000000
     16973       984  MEOH      DC1           -27.4132652462       10.6511923475       21.3260782741  MEOH      292             0.0000000000
     16974       984  MEOH      O1            -26.8547756334       11.1970442386       20.1251893765  MEOH      292             0.0000000000
     16975       984  MEOH      DO1           -26.8683568837       11.2147508493       20.1268330151  MEOH      292             0.0000000000
     16976       984  MEOH      HO1           -26.0161745785       11.6221065049       20.3638739810  MEOH      292             0.0000000000
     16977       984  MEOH      HO2           -26.8121485018       10.4496703628       19.5083302203  MEOH      292             0.0000000000
     16978       984  MEOH      H1A           -28.3142877779       10.0453803179       21.0569590365  MEOH      292             0.0000000000
     16979       984  MEOH      H1B           -27.6965698996       11.4471679733       22.0261049187  MEOH      292             0.0000000000
     16980       984  MEOH      H1C           -26.6797608102        9.9573705563       21.7959795987  MEOH      292             0.0000000000
     16981       984  MEOH      LP1A          -26.6532969897       10.9597261758       19.9652315907  MEOH      292             0.0000000000
     16982       984  MEOH      LP1B          -26.9716951154       11.5237520781       20.0794529325  MEOH      292             0.0000000000
     16983       985  MEOH      C1             20.2952500868      -27.1856996551      -14.9833823037  MEOH      293             0.0000000000
     16984       985  MEOH      DC1            20.2719973834      -27.1823960315      -14.9796503962  MEOH      293             0.0000000000
     16985       985  MEOH      O1             19.3929287853      -27.0769781665      -13.8836347023  MEOH      293             0.0000000000
     16986       985  MEOH      DO1            19.3687679794      -27.0756701855      -13.8886473993  MEOH      293             0.0000000000
     16987       985  MEOH      HO1            19.9265744301      -27.1853704043      -13.0809059503  MEOH      293             0.0000000000
     16988       985  MEOH      HO2            18.8860504708      -26.2624827692      -14.0270628094  MEOH      293             0.0000000000
     16989       985  MEOH      H1A            19.7309480002      -27.1811999037      -15.9403900927  MEOH      293             0.0000000000
     16990       985  MEOH      H1B            20.8678833503      -28.1346618406      -14.9066821341  MEOH      293             0.0000000000
     16991       985  MEOH      H1C            21.0057239948      -26.3315648711      -14.9821179261  MEOH      293             0.0000000000
     16992       985  MEOH      LP1A           19.3639940620      -26.7423656101      -13.7851602445  MEOH      293             0.0000000000
     16993       985  MEOH      LP1B           19.2617330418      -27.3917526413      -13.8048647404  MEOH      293             0.0000000000
     16994       986  MEOH      C1             23.5293988163       -3.1238390498        5.1947996099  MEOH      294             0.0000000000
     16995       986  MEOH      DC1            23.5277330587       -3.1369641692        5.1832395234  MEOH      294             0.0000000000
     16996       986  MEOH      O1             23.6607194233       -4.4563572916        4.6883319572  MEOH      294             0.0000000000
     16997       986  MEOH      DO1            23.6583918708       -4.4642368603        4.6689508623  MEOH      294             0.0000000000
     16998       986  MEOH      HO1            24.1145737863       -4.9577783142        5.3836686934  MEOH      294             0.0000000000
     16999       986  MEOH      HO2            22.7653254915       -4.7204031646        4.4247992575  MEOH      294             0.0000000000
     17000       986  MEOH      H1A            22.9476942233       -2.5003050033        4.4826577272  MEOH      294             0.0000000000
     17001       986  MEOH      H1B            24.5270873574       -2.6596924708        5.3481179991  MEOH      294             0.0000000000
     17002       986  MEOH      H1C            22.9922055595       -3.1403535414        6.1671532885  MEOH      294             0.0000000000
     17003       986  MEOH      LP1A           23.3786759374       -4.6452049255        4.7737019942  MEOH      294             0.0000000000
     17004       986  MEOH      LP1B           23.9594415382       -4.4871983385        4.5085712054  MEOH      294             0.0000000000
     17005       987  MEOH      C1             17.8453209394        1.9001986708       33.0532256612  MEOH      295             0.0000000000
     17006       987  MEOH      DC1            17.8393105997        1.8960310135       33.0590520281  MEOH      295             0.0000000000
     17007       987  MEOH      O1             17.6180105739        1.9001228135       31.6562597034  MEOH      295             0.0000000000
     17008       987  MEOH      DO1            17.6201482436        1.9001634565       31.6622678260  MEOH      295             0.0000000000
     17009       987  MEOH      HO1            18.4808109998        1.8491265555       31.2159475329  MEOH      295             0.0000000000
     17010       987  MEOH      HO2            16.9361729405        1.2285658503       31.4981183527  MEOH      295             0.0000000000
     17011       987  MEOH      H1A            16.8793760190        2.0056881499       33.5918752531  MEOH      295             0.0000000000
     17012       987  MEOH      H1B            18.4948930713        2.7579120564       33.3301819649  MEOH      295             0.0000000000
     17013       987  MEOH      H1C            18.3299051444        0.9452636288       33.3491956155  MEOH      295             0.0000000000
     17014       987  MEOH      LP1A           17.5752178103        1.5720920608       31.5419592020  MEOH      295             0.0000000000
     17015       987  MEOH      LP1B           17.6110386160        2.2287743123       31.5360948826  MEOH      295             0.0000000000
     17016       988  MEOH      C1            -36.3555560837       28.8769490146        3.6543855778  MEOH      296             0.0000000000
     17017       988  MEOH      DC1           -36.3393731312       28.8828397632        3.6665345772  MEOH      296             0.0000000000
     17018       988  MEOH      O1            -36.6159692024       27.5950034077        3.0824308403  MEOH      296             0.0000000000
     17019       988  MEOH      DO1           -36.6100636047       27.6061930251        3.0932667272  MEOH      296             0.0000000000
     17020       988  MEOH      HO1           -37.4290128196       27.6519202632        2.5564835535  MEOH      296             0.0000000000
     17021       988  MEOH      HO2           -35.7881872751       27.3193230969        2.6585470742  MEOH      296             0.0000000000
     17022       988  MEOH      H1A           -35.3703453192       28.8547939355        4.1674059504  MEOH      296             0.0000000000
     17023       988  MEOH      H1B           -37.1218524302       29.1212903579        4.4208111888  MEOH      296             0.0000000000
     17024       988  MEOH      H1C           -36.3464796649       29.6564330001        2.8627775079  MEOH      296             0.0000000000
     17025       988  MEOH      LP1A          -36.4560986075       27.5675843442        2.7722863774  MEOH      296             0.0000000000
     17026       988  MEOH      LP1B          -36.8100627883       27.4032897935        3.3016876989  MEOH      296             0.0000000000
     17027       989  MEOH      C1            -23.1939820701       12.6700387938        2.9627479597  MEOH      297             0.0000000000
     17028       989  MEOH      DC1           -23.1949065300       12.6911163154        2.9603016371  MEOH      297             0.0000000000
     17029       989  MEOH      O1            -23.3856504224       12.7737472467        4.3762469407  MEOH      297             0.0000000000
     17030       989  MEOH      DO1           -23.3859532275       12.7862400548        4.3752005679  MEOH      297             0.0000000000
     17031       989  MEOH      HO1           -23.7698273448       11.9338201540        4.6726091706  MEOH      297             0.0000000000
     17032       989  MEOH      HO2           -22.5396967833       13.0753228404        4.7427365079  MEOH      297             0.0000000000
     17033       989  MEOH      H1A           -22.8429718527       13.6412258378        2.5529814958  MEOH      297             0.0000000000
     17034       989  MEOH      H1B           -24.1383217965       12.3614782008        2.4654212641  MEOH      297             0.0000000000
     17035       989  MEOH      H1C           -22.4378155382       11.8877847452        2.7377773405  MEOH      297             0.0000000000
     17036       989  MEOH      LP1A          -23.0976649331       12.6672350340        4.5442335666  MEOH      297             0.0000000000
     17037       989  MEOH      LP1B          -23.7014368717       12.9082688531        4.4446783359  MEOH      297             0.0000000000
     17038       990  MEOH      C1            -16.2835500409       21.8917475738       21.6020812400  MEOH      298             0.0000000000
     17039       990  MEOH      DC1           -16.2852025302       21.8930894412       21.5977838954  MEOH      298             0.0000000000
     17040       990  MEOH      O1            -15.7723439768       21.7418712832       20.2751126867  MEOH      298             0.0000000000
     17041       990  MEOH      DO1           -15.7792985522       21.7455806103       20.2693754550  MEOH      298             0.0000000000
     17042       990  MEOH      HO1           -15.5404956478       22.6188269754       19.9314630597  MEOH      298             0.0000000000
     17043       990  MEOH      HO2           -15.0957857521       21.0489465067       20.3301056258  MEOH      298             0.0000000000
     17044       990  MEOH      H1A           -16.5384019247       20.8941104969       22.0193243135  MEOH      298             0.0000000000
     17045       990  MEOH      H1B           -17.2023715515       22.5163010431       21.5974990792  MEOH      298             0.0000000000
     17046       990  MEOH      H1C           -15.5154546963       22.3681555638       22.2481353931  MEOH      298             0.0000000000
     17047       990  MEOH      LP1A          -15.4262640672       21.6906239889       20.2852325198  MEOH      298             0.0000000000
     17048       990  MEOH      LP1B          -16.0343430908       21.7566659814       20.0435147999  MEOH      298             0.0000000000
     17049       991  MEOH      C1             -4.9469433942      -36.6288841812      -18.9965491248  MEOH      299             0.0000000000
     17050       991  MEOH      DC1            -4.9411155003      -36.6326774833      -19.0005959327  MEOH      299             0.0000000000
     17051       991  MEOH      O1             -4.1275419905      -37.0616660423      -20.0801435012  MEOH      299             0.0000000000
     17052       991  MEOH      DO1            -4.1173801137      -37.0544144644      -20.0865439105  MEOH      299             0.0000000000
     17053       991  MEOH      HO1            -4.7301843857      -37.4100061276      -20.7557035130  MEOH      299             0.0000000000
     17054       991  MEOH      HO2            -3.5121792522      -36.3361871502      -20.2696404070  MEOH      299             0.0000000000
     17055       991  MEOH      H1A            -4.3206646300      -36.4033173591      -18.1070461632  MEOH      299             0.0000000000
     17056       991  MEOH      H1B            -5.6566311284      -37.4443946680      -18.7404105569  MEOH      299             0.0000000000
     17057       991  MEOH      H1C            -5.5260169781      -35.7253376262      -19.2839485139  MEOH      299             0.0000000000
     17058       991  MEOH      LP1A           -4.0751464964      -36.7974080383      -20.3035767564  MEOH      299             0.0000000000
     17059       991  MEOH      LP1B           -4.0329809345      -37.3953203322      -20.0328886443  MEOH      299             0.0000000000
     17060       992  MEOH      C1             10.8780971341       20.6785868622       -7.2278310564  MEOH      300             0.0000000000
     17061       992  MEOH      DC1            10.8816969982       20.6728031346       -7.2347721769  MEOH      300             0.0000000000
     17062       992  MEOH      O1             11.2546943973       21.3897539334       -8.4053434767  MEOH      300             0.0000000000
     17063       992  MEOH      DO1            11.2611130470       21.3892775896       -8.4055456342  MEOH      300             0.0000000000
     17064       992  MEOH      HO1            10.8315249200       22.2620239930       -8.3741579374  MEOH      300             0.0000000000
     17065       992  MEOH      HO2            12.2162881179       21.2950964829       -8.4906516443  MEOH      300             0.0000000000
     17066       992  MEOH      H1A            11.2146774014       19.6226612724       -7.3056505430  MEOH      300             0.0000000000
     17067       992  MEOH      H1B             9.7735404146       20.7029718750       -7.1108659939  MEOH      300             0.0000000000
     17068       992  MEOH      H1C            11.3466365804       21.1496173648       -6.3373693484  MEOH      300             0.0000000000
     17069       992  MEOH      LP1A           11.5514623161       21.5664483979       -8.3487054282  MEOH      300             0.0000000000
     17070       992  MEOH      LP1B           11.0273825126       21.3234383047       -8.6630866522  MEOH      300             0.0000000000
     17071       993  MEOH      C1             30.8157787907       -9.2856927372        4.8462014118  MEOH      301             0.0000000000
     17072       993  MEOH      DC1            30.8043763336       -9.2921002388        4.8528705820  MEOH      301             0.0000000000
     17073       993  MEOH      O1             29.5373492027       -9.9117937683        4.7256906604  MEOH      301             0.0000000000
     17074       993  MEOH      DO1            29.5307522622       -9.9133112431        4.7268763521  MEOH      301             0.0000000000
     17075       993  MEOH      HO1            28.8740455310       -9.2040813644        4.7172412592  MEOH      301             0.0000000000
     17076       993  MEOH      HO2            29.6120272948      -10.5180780033        3.9722036925  MEOH      301             0.0000000000
     17077       993  MEOH      H1A            31.6043699325      -10.0590803715        4.9658533156  MEOH      301             0.0000000000
     17078       993  MEOH      H1B            30.8277579626       -8.6210523023        5.7363871188  MEOH      301             0.0000000000
     17079       993  MEOH      H1C            31.0426883167       -8.6758862490        3.9456631759  MEOH      301             0.0000000000
     17080       993  MEOH      LP1A           29.4552375190       -9.9522491908        4.3878726174  MEOH      301             0.0000000000
     17081       993  MEOH      LP1B           29.4102769191       -9.9865654993        5.0431206889  MEOH      301             0.0000000000
     17082       994  MEOH      C1            -19.9053595949       25.4209058257      -20.9401598013  MEOH      302             0.0000000000
     17083       994  MEOH      DC1           -19.9039082174       25.4164292607      -20.9454109094  MEOH      302             0.0000000000
     17084       994  MEOH      O1            -20.3316300608       25.5057575138      -22.3041028217  MEOH      302             0.0000000000
     17085       994  MEOH      DO1           -20.3286501586       25.4931266890      -22.3041150027  MEOH      302             0.0000000000
     17086       994  MEOH      HO1           -21.0211164225       26.1864930063      -22.3500130290  MEOH      302             0.0000000000
     17087       994  MEOH      HO2           -19.5230902472       25.6084275541      -22.8300517097  MEOH      302             0.0000000000
     17088       994  MEOH      H1A           -19.1689201887       24.5972764609      -20.8234864430  MEOH      302             0.0000000000
     17089       994  MEOH      H1B           -20.7771052852       25.2284564979      -20.2788401292  MEOH      302             0.0000000000
     17090       994  MEOH      H1C           -19.4192870240       26.3697562716      -20.6275301690  MEOH      302             0.0000000000
     17091       994  MEOH      LP1A          -20.1341255256       25.7372210568      -22.4770669419  MEOH      302             0.0000000000
     17092       994  MEOH      LP1B          -20.5929452437       25.2802567473      -22.3621009209  MEOH      302             0.0000000000
     17093       995  MEOH      C1             -1.0957443502      -12.0652318868       -3.1163456568  MEOH      303             0.0000000000
     17094       995  MEOH      DC1            -1.0963541174      -12.0672674765       -3.1136799013  MEOH      303             0.0000000000
     17095       995  MEOH      O1              0.0536392388      -11.5387524402       -2.4570345159  MEOH      303             0.0000000000
     17096       995  MEOH      DO1             0.0542758847      -11.5346888990       -2.4514913886  MEOH      303             0.0000000000
     17097       995  MEOH      HO1             0.7334999179      -11.4338183762       -3.1409046065  MEOH      303             0.0000000000
     17098       995  MEOH      HO2            -0.2632648563      -10.7771742734       -1.9466714193  MEOH      303             0.0000000000
     17099       995  MEOH      H1A            -1.8897176191      -12.2844633844       -2.3707821119  MEOH      303             0.0000000000
     17100       995  MEOH      H1B            -0.8165406841      -12.9967612602       -3.6535786968  MEOH      303             0.0000000000
     17101       995  MEOH      H1C            -1.4897764083      -11.3316901787       -3.8518565684  MEOH      303             0.0000000000
     17102       995  MEOH      LP1A            0.0410180341      -11.1889836412       -2.4554557745  MEOH      303             0.0000000000
     17103       995  MEOH      LP1B            0.2535669476      -11.8001801248       -2.3379359139  MEOH      303             0.0000000000
     17104       996  MEOH      C1            -12.1212747823       19.8249317471       30.4933943482  MEOH      304             0.0000000000
     17105       996  MEOH      DC1           -12.1179373678       19.8275833930       30.4872822094  MEOH      304             0.0000000000
     17106       996  MEOH      O1            -12.6708706619       19.1308636381       29.3737345785  MEOH      304             0.0000000000
     17107       996  MEOH      DO1           -12.6733935825       19.1411640758       29.3706493340  MEOH      304             0.0000000000
     17108       996  MEOH      HO1           -13.3960666920       18.5715983433       29.6934423324  MEOH      304             0.0000000000
     17109       996  MEOH      HO2           -12.7971290464       19.7853932738       28.6690716967  MEOH      304             0.0000000000
     17110       996  MEOH      H1A           -11.1732870483       20.3222485215       30.1962137925  MEOH      304             0.0000000000
     17111       996  MEOH      H1B           -11.9155817247       19.1070322289       31.3159705744  MEOH      304             0.0000000000
     17112       996  MEOH      H1C           -12.8359659070       20.5953522567       30.8539353804  MEOH      304             0.0000000000
     17113       996  MEOH      LP1A          -12.9250084585       19.3219362198       29.2274292509  MEOH      304             0.0000000000
     17114       996  MEOH      LP1B          -12.5013294161       18.8285185315       29.3253279419  MEOH      304             0.0000000000
     17115       997  MEOH      C1            -18.1181953437       19.9150636438      -28.9721627725  MEOH      305             0.0000000000
     17116       997  MEOH      DC1           -18.1141678052       19.9301106420      -28.9780069306  MEOH      305             0.0000000000
     17117       997  MEOH      O1            -17.2173018442       20.9141369507      -28.4937017942  MEOH      305             0.0000000000
     17118       997  MEOH      DO1           -17.2178937367       20.9319673388      -28.5029476938  MEOH      305             0.0000000000
     17119       997  MEOH      HO1           -16.4098760313       20.8742470085      -29.0297730124  MEOH      305             0.0000000000
     17120       997  MEOH      HO2           -17.7287443602       21.7240061847      -28.3406058228  MEOH      305             0.0000000000
     17121       997  MEOH      H1A           -18.8708698760       19.6880961353      -28.1871227735  MEOH      305             0.0000000000
     17122       997  MEOH      H1B           -17.5653785857       18.9812144185      -29.2101549087  MEOH      305             0.0000000000
     17123       997  MEOH      H1C           -18.6437585023       20.2789360809      -29.8808438033  MEOH      305             0.0000000000
     17124       997  MEOH      LP1A          -17.2746542948       21.2166409891      -28.6601409817  MEOH      305             0.0000000000
     17125       997  MEOH      LP1B          -17.0165728052       20.7822826472      -28.2390995641  MEOH      305             0.0000000000
     17126       998  MEOH      C1            -13.3571279428       -4.1984850852      -33.2615169076  MEOH      306             0.0000000000
     17127       998  MEOH      DC1           -13.3622891420       -4.2155038759      -33.2562048584  MEOH      306             0.0000000000
     17128       998  MEOH      O1            -12.3095347278       -3.2527568356      -33.0831168071  MEOH      306             0.0000000000
     17129       998  MEOH      DO1           -12.3108304105       -3.2685310904      -33.0952001442  MEOH      306             0.0000000000
     17130       998  MEOH      HO1           -12.7159045231       -2.3843650591      -32.9359457727  MEOH      306             0.0000000000
     17131       998  MEOH      HO2           -11.7337013104       -3.6300245350      -32.3997538300  MEOH      306             0.0000000000
     17132       998  MEOH      H1A           -12.9169975782       -5.2013149737      -33.4484352783  MEOH      306             0.0000000000
     17133       998  MEOH      H1B           -13.9860475023       -3.9131945325      -34.1317987517  MEOH      306             0.0000000000
     17134       998  MEOH      H1C           -13.9845369019       -4.2513608687      -32.3461573331  MEOH      306             0.0000000000
     17135       998  MEOH      LP1A          -12.2214371217       -3.2340808783      -32.7449008695  MEOH      306             0.0000000000
     17136       998  MEOH      LP1B          -12.2135592367       -3.1206125116      -33.3926754974  MEOH      306             0.0000000000
     17137       999  MEOH      C1            -17.1805871500       21.5196591497        5.6502687096  MEOH      307             0.0000000000
     17138       999  MEOH      DC1           -17.1799215337       21.5275854234        5.6615733196  MEOH      307             0.0000000000
     17139       999  MEOH      O1            -18.1370031178       21.2505721988        4.6235781643  MEOH      307             0.0000000000
     17140       999  MEOH      DO1           -18.1473065197       21.2551540734        4.6321935549  MEOH      307             0.0000000000
     17141       999  MEOH      HO1           -17.7081788561       21.4619748745        3.7795884362  MEOH      307             0.0000000000
     17142       999  MEOH      HO2           -18.4362051119       20.3417125558        4.7828022723  MEOH      307             0.0000000000
     17143       999  MEOH      H1A           -17.6200110449       21.2717372998        6.6400981885  MEOH      307             0.0000000000
     17144       999  MEOH      H1B           -16.8973567546       22.5937269757        5.6283632700  MEOH      307             0.0000000000
     17145       999  MEOH      H1C           -16.2770602437       20.8932650688        5.4902981313  MEOH      307             0.0000000000
     17146       999  MEOH      LP1A          -18.1108820222       20.9172652642        4.5200205683  MEOH      307             0.0000000000
     17147       999  MEOH      LP1B          -18.3310071229       21.5355237184        4.5630382810  MEOH      307             0.0000000000
     17148      1000  MEOH      C1            -29.5300028655       21.5212961174      -18.6646475468  MEOH      308             0.0000000000
     17149      1000  MEOH      DC1           -29.5343524464       21.5299128646      -18.6710310391  MEOH      308             0.0000000000
     17150      1000  MEOH      O1            -28.1029027246       21.4957607795      -18.7458853313  MEOH      308             0.0000000000
     17151      1000  MEOH      DO1           -28.1053689895       21.5139342451      -18.7506368333  MEOH      308             0.0000000000
     17152      1000  MEOH      HO1           -27.8483684490       20.9726604641      -19.5220801285  MEOH      308             0.0000000000
     17153      1000  MEOH      HO2           -27.7923559821       22.4026447313      -18.5974864811  MEOH      308             0.0000000000
     17154      1000  MEOH      H1A           -29.8312687054       21.8344528582      -17.6421541484  MEOH      308             0.0000000000
     17155      1000  MEOH      H1B           -29.9450160627       20.5073182473      -18.8488591779  MEOH      308             0.0000000000
     17156      1000  MEOH      H1C           -29.9454134891       22.2344161897      -19.4084316403  MEOH      308             0.0000000000
     17157      1000  MEOH      LP1A          -27.9887504289       21.7686429063      -18.9329804895  MEOH      308             0.0000000000
     17158      1000  MEOH      LP1B          -27.9774114849       21.2250614725      -18.5629267732  MEOH      308             0.0000000000
     17159      1001  MEOH      C1            -27.9005391235       27.1685865204       -4.0960271735  MEOH      309             0.0000000000
     17160      1001  MEOH      DC1           -27.9105471651       27.1716543624       -4.0921207960  MEOH      309             0.0000000000
     17161      1001  MEOH      O1            -26.5975026988       27.3292759246       -3.5466867344  MEOH      309             0.0000000000
     17162      1001  MEOH      DO1           -26.6149820837       27.3540258262       -3.5506919732  MEOH      309             0.0000000000
     17163      1001  MEOH      HO1           -26.0050656056       26.6531601684       -3.9110845600  MEOH      309             0.0000000000
     17164      1001  MEOH      HO2           -26.3790895691       28.2736266232       -3.5840693890  MEOH      309             0.0000000000
     17165      1001  MEOH      H1A           -28.6252067921       27.7689000633       -3.5054330482  MEOH      309             0.0000000000
     17166      1001  MEOH      H1B           -28.1969768167       26.0998082928       -4.0315384595  MEOH      309             0.0000000000
     17167      1001  MEOH      H1C           -27.9176172625       27.5119125485       -5.1525102908  MEOH      309             0.0000000000
     17168      1001  MEOH      LP1A          -26.4106424181       27.5496259387       -3.7442445912  MEOH      309             0.0000000000
     17169      1001  MEOH      LP1B          -26.5688628652       27.1449131534       -3.2505615437  MEOH      309             0.0000000000
     17170      1002  MEOH      C1            -19.3899371883       23.5227475108       -0.1458660995  MEOH      310             0.0000000000
     17171      1002  MEOH      DC1           -19.3867284979       23.5147356109       -0.1307267452  MEOH      310             0.0000000000
     17172      1002  MEOH      O1            -18.2665668715       22.7991310906        0.3600263267  MEOH      310             0.0000000000
     17173      1002  MEOH      DO1           -18.2643038226       22.7940415478        0.3752723676  MEOH      310             0.0000000000
     17174      1002  MEOH      HO1           -17.7783973481       22.5033849896       -0.4242725708  MEOH      310             0.0000000000
     17175      1002  MEOH      HO2           -17.8435916850       23.3876744986        1.0047034927  MEOH      310             0.0000000000
     17176      1002  MEOH      H1A           -20.0379500231       23.8573157352        0.6922654354  MEOH      310             0.0000000000
     17177      1002  MEOH      H1B           -19.9790414143       22.8727367496       -0.8276015476  MEOH      310             0.0000000000
     17178      1002  MEOH      H1C           -19.0478380378       24.4109802063       -0.7188685876  MEOH      310             0.0000000000
     17179      1002  MEOH      LP1A          -17.9978047056       23.0169986905        0.4129470888  MEOH      310             0.0000000000
     17180      1002  MEOH      LP1B          -18.3506165702       22.4620518469        0.4026083843  MEOH      310             0.0000000000
     17181      1003  MEOH      C1            -10.8918539969       -5.1417671784      -35.6183028870  MEOH      311             0.0000000000
     17182      1003  MEOH      DC1           -10.8997855947       -5.1575934396      -35.6224755293  MEOH      311             0.0000000000
     17183      1003  MEOH      O1             -9.7290786505       -4.4866345548      -36.1249154618  MEOH      311             0.0000000000
     17184      1003  MEOH      DO1            -9.7423862307       -4.4987519333      -36.1308045991  MEOH      311             0.0000000000
     17185      1003  MEOH      HO1            -9.4619173605       -3.8016635312      -35.4921915538  MEOH      311             0.0000000000
     17186      1003  MEOH      HO2            -9.1023409205       -5.1869610367      -36.3650042715  MEOH      311             0.0000000000
     17187      1003  MEOH      H1A           -11.2696883427       -5.8653325499      -36.3719708246  MEOH      311             0.0000000000
     17188      1003  MEOH      H1B           -11.6849125700       -4.3924154287      -35.4088964476  MEOH      311             0.0000000000
     17189      1003  MEOH      H1C           -10.6578125004       -5.6814297997      -34.6758009858  MEOH      311             0.0000000000
     17190      1003  MEOH      LP1A           -9.4410020789       -4.6531934751      -36.0164257621  MEOH      311             0.0000000000
     17191      1003  MEOH      LP1B           -9.8223557384       -4.2169903547      -36.3276255756  MEOH      311             0.0000000000
     17192      1004  MEOH      C1            -19.7624089594      -34.7738801252       30.1509912052  MEOH      312             0.0000000000
     17193      1004  MEOH      DC1           -19.7605919027      -34.7798999582       30.1495690941  MEOH      312             0.0000000000
     17194      1004  MEOH      O1            -18.7065816244      -33.8871576025       29.7753535571  MEOH      312             0.0000000000
     17195      1004  MEOH      DO1           -18.6989587659      -33.9021403225       29.7698418355  MEOH      312             0.0000000000
     17196      1004  MEOH      HO1           -19.0439536016      -33.3284996401       29.0577314908  MEOH      312             0.0000000000
     17197      1004  MEOH      HO2           -18.4256493300      -33.4588846591       30.5991006860  MEOH      312             0.0000000000
     17198      1004  MEOH      H1A           -19.4296305517      -35.4133795543       30.9963432101  MEOH      312             0.0000000000
     17199      1004  MEOH      H1B           -20.0371578068      -35.4255699288       29.2941747309  MEOH      312             0.0000000000
     17200      1004  MEOH      H1C           -20.6498448467      -34.1909265250       30.4780136014  MEOH      312             0.0000000000
     17201      1004  MEOH      LP1A          -18.7206213446      -33.5956662791       29.9685780240  MEOH      312             0.0000000000
     17202      1004  MEOH      LP1B          -18.5088578634      -34.0348130005       29.5271536422  MEOH      312             0.0000000000
     17203      1005  MEOH      C1            -11.0939873061      -23.9009696555       27.4328842773  MEOH      313             0.0000000000
     17204      1005  MEOH      DC1           -11.0778810248      -23.9060861870       27.4330537762  MEOH      313             0.0000000000
     17205      1005  MEOH      O1            -11.9472337966      -24.8407819543       28.0795051353  MEOH      313             0.0000000000
     17206      1005  MEOH      DO1           -11.9321473747      -24.8493302168       28.0684150482  MEOH      313             0.0000000000
     17207      1005  MEOH      HO1           -11.5622912225      -25.0901550083       28.9342169549  MEOH      313             0.0000000000
     17208      1005  MEOH      HO2           -12.8244220832      -24.4268120902       28.0878515845  MEOH      313             0.0000000000
     17209      1005  MEOH      H1A           -11.5783146439      -23.5856876547       26.4840190130  MEOH      313             0.0000000000
     17210      1005  MEOH      H1B           -10.1160726920      -24.3692895492       27.1906437226  MEOH      313             0.0000000000
     17211      1005  MEOH      H1C           -10.9524519216      -23.0029591148       28.0715279997  MEOH      313             0.0000000000
     17212      1005  MEOH      LP1A          -12.1845208473      -24.6727510644       28.2743396179  MEOH      313             0.0000000000
     17213      1005  MEOH      LP1B          -11.8605925233      -25.1662942229       27.9844522407  MEOH      313             0.0000000000
     17214      1006  MEOH      C1            -17.4187217982        9.2932257830        0.4567466281  MEOH      314             0.0000000000
     17215      1006  MEOH      DC1           -17.4226420661        9.3032828908        0.4547400072  MEOH      314             0.0000000000
     17216      1006  MEOH      O1            -17.0140813486       10.5585345897        0.9706274671  MEOH      314             0.0000000000
     17217      1006  MEOH      DO1           -17.0126186136       10.5595323958        0.9735399778  MEOH      314             0.0000000000
     17218      1006  MEOH      HO1           -16.6266698881       11.0658082597        0.2402263547  MEOH      314             0.0000000000
     17219      1006  MEOH      HO2           -17.7793015523       10.9050144819        1.4556941885  MEOH      314             0.0000000000
     17220      1006  MEOH      H1A           -17.8091735092        8.6632085719        1.2843617414  MEOH      314             0.0000000000
     17221      1006  MEOH      H1B           -16.5577164172        8.7720775569       -0.0137799520  MEOH      314             0.0000000000
     17222      1006  MEOH      H1C           -18.2291148849        9.4281825156       -0.2911642792  MEOH      314             0.0000000000
     17223      1006  MEOH      LP1A          -17.2782119091       10.7870363171        0.9477799812  MEOH      314             0.0000000000
     17224      1006  MEOH      LP1B          -16.6857038596       10.5396874002        1.0902644520  MEOH      314             0.0000000000
     17225      1007  MEOH      C1              3.9708021606       -9.1107857172        6.8004975180  MEOH      315             0.0000000000
     17226      1007  MEOH      DC1             3.9702440990       -9.1088140007        6.8013709344  MEOH      315             0.0000000000
     17227      1007  MEOH      O1              4.8790432666       -9.2557999122        7.8880998838  MEOH      315             0.0000000000
     17228      1007  MEOH      DO1             4.8808043476       -9.2669339681        7.8898407084  MEOH      315             0.0000000000
     17229      1007  MEOH      HO1             5.7681471624       -9.2004113275        7.5042687139  MEOH      315             0.0000000000
     17230      1007  MEOH      HO2             4.6060491084       -8.5797135905        8.5278509888  MEOH      315             0.0000000000
     17231      1007  MEOH      H1A             2.9280925714       -9.0867017218        7.1832476633  MEOH      315             0.0000000000
     17232      1007  MEOH      H1B             4.0824190229       -9.9638098116        6.0974949772  MEOH      315             0.0000000000
     17233      1007  MEOH      H1C             4.1885595625       -8.1697774545        6.2514928147  MEOH      315             0.0000000000
     17234      1007  MEOH      LP1A            4.9498182625       -8.9426661612        8.0275206639  MEOH      315             0.0000000000
     17235      1007  MEOH      LP1B            4.9520867795       -9.5943267824        7.9387378478  MEOH      315             0.0000000000
     17236      1008  MEOH      C1             21.2212240185       25.4947794913       18.4698749730  MEOH      316             0.0000000000
     17237      1008  MEOH      DC1            21.2295695676       25.4732592276       18.4710143437  MEOH      316             0.0000000000
     17238      1008  MEOH      O1             20.6859510375       24.3314520649       17.8433332944  MEOH      316             0.0000000000
     17239      1008  MEOH      DO1            20.6929179298       24.3117974166       17.8741062076  MEOH      316             0.0000000000
     17240      1008  MEOH      HO1            19.7878771615       24.5600394067       17.5567828761  MEOH      316             0.0000000000
     17241      1008  MEOH      HO2            21.3420646853       24.0744387721       17.1767306778  MEOH      316             0.0000000000
     17242      1008  MEOH      H1A            22.2423175150       25.2868994526       18.8551994616  MEOH      316             0.0000000000
     17243      1008  MEOH      H1B            20.5639225140       25.8287582517       19.3009790097  MEOH      316             0.0000000000
     17244      1008  MEOH      H1C            21.2951712038       26.3218782452       17.7317960706  MEOH      316             0.0000000000
     17245      1008  MEOH      LP1A           20.7641460691       24.3325118057       17.5021816947  MEOH      316             0.0000000000
     17246      1008  MEOH      LP1B           20.5276709155       24.1294177891       18.0813029445  MEOH      316             0.0000000000
     17247      1009  MEOH      C1            -18.6708759899      -24.2465671016      -29.9848969713  MEOH      317             0.0000000000
     17248      1009  MEOH      DC1           -18.6746432156      -24.2493075012      -29.9815136549  MEOH      317             0.0000000000
     17249      1009  MEOH      O1            -17.4030247627      -24.1368892589      -29.3413334984  MEOH      317             0.0000000000
     17250      1009  MEOH      DO1           -17.4055540226      -24.1410733204      -29.3360150166  MEOH      317             0.0000000000
     17251      1009  MEOH      HO1           -16.7174007928      -24.3176134636      -30.0032689447  MEOH      317             0.0000000000
     17252      1009  MEOH      HO2           -17.4150785935      -23.2878146238      -28.8724764101  MEOH      317             0.0000000000
     17253      1009  MEOH      H1A           -19.4695501552      -24.0035438837      -29.2518346996  MEOH      317             0.0000000000
     17254      1009  MEOH      H1B           -18.8200918764      -25.2787465303      -30.3678607375  MEOH      317             0.0000000000
     17255      1009  MEOH      H1C           -18.7264063684      -23.5248861204      -30.8277575414  MEOH      317             0.0000000000
     17256      1009  MEOH      LP1A          -17.2883045381      -23.8066629805      -29.3583592171  MEOH      317             0.0000000000
     17257      1009  MEOH      LP1B          -17.3101335279      -24.4461716490      -29.2063682375  MEOH      317             0.0000000000
     17258      1010  MEOH      C1             -3.0359386531       24.3339065422       -6.0281092465  MEOH      318             0.0000000000
     17259      1010  MEOH      DC1            -3.0238820256       24.3230822894       -6.0094896290  MEOH      318             0.0000000000
     17260      1010  MEOH      O1             -2.4417418007       25.4073988321       -5.3003209456  MEOH      318             0.0000000000
     17261      1010  MEOH      DO1            -2.4276060677       25.4047948390       -5.2791625234  MEOH      318             0.0000000000
     17262      1010  MEOH      HO1            -3.0316500773       25.5987722161       -4.5544761535  MEOH      318             0.0000000000
     17263      1010  MEOH      HO2            -1.5011800440       25.1934656322       -5.1979677935  MEOH      318             0.0000000000
     17264      1010  MEOH      H1A            -2.5016665422       24.2243268380       -6.9960279418  MEOH      318             0.0000000000
     17265      1010  MEOH      H1B            -4.0922822031       24.5786784378       -6.2700721019  MEOH      318             0.0000000000
     17266      1010  MEOH      H1C            -2.9889949092       23.3875275559       -5.4480367496  MEOH      318             0.0000000000
     17267      1010  MEOH      LP1A           -2.2234250954       25.2811141290       -5.0576483474  MEOH      318             0.0000000000
     17268      1010  MEOH      LP1B           -2.5516141180       25.7140687125       -5.4283117983  MEOH      318             0.0000000000
     17269      1011  MEOH      C1             22.7572836456       -2.1884072024      -10.6432279002  MEOH      319             0.0000000000
     17270      1011  MEOH      DC1            22.7539418396       -2.2145910892      -10.6443259011  MEOH      319             0.0000000000
     17271      1011  MEOH      O1             22.2735952225       -1.8564944720       -9.3491639422  MEOH      319             0.0000000000
     17272      1011  MEOH      DO1            22.2692627112       -1.8815558449       -9.3466185362  MEOH      319             0.0000000000
     17273      1011  MEOH      HO1            21.5965430270       -2.4976611661       -9.0819456890  MEOH      319             0.0000000000
     17274      1011  MEOH      HO2            23.0535334837       -1.6618920687       -8.8062770161  MEOH      319             0.0000000000
     17275      1011  MEOH      H1A            23.3507618867       -1.3382404102      -11.0423782525  MEOH      319             0.0000000000
     17276      1011  MEOH      H1B            21.9064583680       -2.3715669668      -11.3337855355  MEOH      319             0.0000000000
     17277      1011  MEOH      H1C            23.4062105133       -3.0884255377      -10.5868194043  MEOH      319             0.0000000000
     17278      1011  MEOH      LP1A           22.4688968471       -2.0131078862       -9.1045632187  MEOH      319             0.0000000000
     17279      1011  MEOH      LP1B           22.0039060223       -1.6349507880       -9.3753580520  MEOH      319             0.0000000000
     17280      1012  MEOH      C1              1.7232989650      -23.1191375542       27.6540032632  MEOH      320             0.0000000000
     17281      1012  MEOH      DC1             1.6977231936      -23.1276962979       27.6616573271  MEOH      320             0.0000000000
     17282      1012  MEOH      O1              0.4742425873      -23.7008822486       28.0312818968  MEOH      320             0.0000000000
     17283      1012  MEOH      DO1             0.4407384178      -23.7072094076       28.0191707187  MEOH      320             0.0000000000
     17284      1012  MEOH      HO1            -0.1614921961      -22.9688429554       28.0019602323  MEOH      320             0.0000000000
     17285      1012  MEOH      HO2             0.3768143713      -24.5005845751       27.4910190609  MEOH      320             0.0000000000
     17286      1012  MEOH      H1A             2.5379433015      -23.8696919645       27.7396985530  MEOH      320             0.0000000000
     17287      1012  MEOH      H1B             1.9760665379      -22.2515587607       28.3003287163  MEOH      320             0.0000000000
     17288      1012  MEOH      H1C             1.6667650535      -22.7708734375       26.6005152360  MEOH      320             0.0000000000
     17289      1012  MEOH      LP1A            0.3084938994      -23.8226372538       27.7480803940  MEOH      320             0.0000000000
     17290      1012  MEOH      LP1B            0.4357764448      -23.6868331036       28.3788778942  MEOH      320             0.0000000000
     17291      1013  MEOH      C1             34.7788572325       28.8860508738      -16.5746770107  MEOH      321             0.0000000000
     17292      1013  MEOH      DC1            34.7745035643       28.8917725534      -16.5744759027  MEOH      321             0.0000000000
     17293      1013  MEOH      O1             34.8453664456       28.0431869546      -17.7254855630  MEOH      321             0.0000000000
     17294      1013  MEOH      DO1            34.8398935975       28.0439921101      -17.7248783423  MEOH      321             0.0000000000
     17295      1013  MEOH      HO1            34.4064505770       28.5069727512      -18.4556606084  MEOH      321             0.0000000000
     17296      1013  MEOH      HO2            35.7805464318       27.8025875514      -17.8174111881  MEOH      321             0.0000000000
     17297      1013  MEOH      H1A            35.2687805564       28.3765036760      -15.7175552045  MEOH      321             0.0000000000
     17298      1013  MEOH      H1B            33.7187000588       29.0917401342      -16.3137561505  MEOH      321             0.0000000000
     17299      1013  MEOH      H1C            35.3072747352       29.8425800076      -16.7750465712  MEOH      321             0.0000000000
     17300      1013  MEOH      LP1A           35.1400590186       28.1065157305      -17.9033780968  MEOH      321             0.0000000000
     17301      1013  MEOH      LP1B           34.5674462024       27.8306294260      -17.7344094325  MEOH      321             0.0000000000
     17302      1014  MEOH      C1             13.2948875534       34.2050761895       33.2764606151  MEOH      322             0.0000000000
     17303      1014  MEOH      DC1            13.2785708202       34.2090485306       33.2862074417  MEOH      322             0.0000000000
     17304      1014  MEOH      O1             13.2908592597       35.0245692717       34.4483849797  MEOH      322             0.0000000000
     17305      1014  MEOH      DO1            13.2802881045       35.0293639695       34.4607787910  MEOH      322             0.0000000000
     17306      1014  MEOH      HO1            13.8799413187       35.7673748363       34.2431479891  MEOH      322             0.0000000000
     17307      1014  MEOH      HO2            12.3594332682       35.1670875289       34.6786764659  MEOH      322             0.0000000000
     17308      1014  MEOH      H1A            12.7452092414       33.2585745511       33.4670108803  MEOH      322             0.0000000000
     17309      1014  MEOH      H1B            14.3407023456       33.9580275281       32.9943978922  MEOH      322             0.0000000000
     17310      1014  MEOH      H1C            12.8238922848       34.7485957352       32.4296601897  MEOH      322             0.0000000000
     17311      1014  MEOH      LP1A           13.0316244974       35.2589757703       34.4296518157  MEOH      322             0.0000000000
     17312      1014  MEOH      LP1B           13.5421831108       34.9200461608       34.6684105264  MEOH      322             0.0000000000
     17313      1015  MEOH      C1             12.4533258624       -4.1805468008       24.6154749072  MEOH      323             0.0000000000
     17314      1015  MEOH      DC1            12.4512569972       -4.1790033607       24.6114833904  MEOH      323             0.0000000000
     17315      1015  MEOH      O1             12.4116691682       -2.7532494022       24.5327837322  MEOH      323             0.0000000000
     17316      1015  MEOH      DO1            12.3981159096       -2.7469005722       24.5269999212  MEOH      323             0.0000000000
     17317      1015  MEOH      HO1            12.7299063922       -2.5047434256       23.6508144307  MEOH      323             0.0000000000
     17318      1015  MEOH      HO2            11.5417552778       -2.4825870106       24.8657877785  MEOH      323             0.0000000000
     17319      1015  MEOH      H1A            12.3293889563       -4.4964387623       25.6733845973  MEOH      323             0.0000000000
     17320      1015  MEOH      H1B            13.4336310023       -4.5552229101       24.2508646416  MEOH      323             0.0000000000
     17321      1015  MEOH      H1C            11.6399539767       -4.6254652671       24.0032700925  MEOH      323             0.0000000000
     17322      1015  MEOH      LP1A           12.0986194486       -2.6492020562       24.4158477547  MEOH      323             0.0000000000
     17323      1015  MEOH      LP1B           12.7136949826       -2.6178814399       24.6466078168  MEOH      323             0.0000000000
     17324      1016  MEOH      C1            -14.3666900642       12.9230355059       21.5886805605  MEOH      324             0.0000000000
     17325      1016  MEOH      DC1           -14.3647936994       12.9290048575       21.5983629215  MEOH      324             0.0000000000
     17326      1016  MEOH      O1            -13.2489642323       12.0401440342       21.6497972433  MEOH      324             0.0000000000
     17327      1016  MEOH      DO1           -13.2492591756       12.0523816300       21.6574333358  MEOH      324             0.0000000000
     17328      1016  MEOH      HO1           -13.5376288198       11.2171004997       22.0742640827  MEOH      324             0.0000000000
     17329      1016  MEOH      HO2           -12.9137941742       11.9956973178       20.7406297552  MEOH      324             0.0000000000
     17330      1016  MEOH      H1A           -14.0477719605       13.8629656953       21.0895378131  MEOH      324             0.0000000000
     17331      1016  MEOH      H1B           -14.7345728388       13.1605341457       22.6097474835  MEOH      324             0.0000000000
     17332      1016  MEOH      H1C           -15.1854971399       12.4734319340       20.9872384591  MEOH      324             0.0000000000
     17333      1016  MEOH      LP1A          -13.2330207046       11.8468595888       21.3584436316  MEOH      324             0.0000000000
     17334      1016  MEOH      LP1B          -13.0706687982       12.0930870450       21.9462896982  MEOH      324             0.0000000000
     17335      1017  MEOH      C1            -12.2960026956       -8.0276005366       24.4734706710  MEOH      325             0.0000000000
     17336      1017  MEOH      DC1           -12.2922406259       -8.0454674928       24.4695305280  MEOH      325             0.0000000000
     17337      1017  MEOH      O1            -12.7976194633       -9.3322699265       24.1772022206  MEOH      325             0.0000000000
     17338      1017  MEOH      DO1           -12.7914763107       -9.3559075228       24.1775318164  MEOH      325             0.0000000000
     17339      1017  MEOH      HO1           -13.4937920392       -9.4716491769       24.8381236753  MEOH      325             0.0000000000
     17340      1017  MEOH      HO2           -13.0382402012       -9.3070678884       23.2378585570  MEOH      325             0.0000000000
     17341      1017  MEOH      H1A           -11.5408380433       -7.7099863307       23.7230250936  MEOH      325             0.0000000000
     17342      1017  MEOH      H1B           -11.8382551514       -7.9981837224       25.4853613948  MEOH      325             0.0000000000
     17343      1017  MEOH      H1C           -13.1323144944       -7.2971802060       24.4361917643  MEOH      325             0.0000000000
     17344      1017  MEOH      LP1A          -13.0568507549       -9.3105287215       23.9430517189  MEOH      325             0.0000000000
     17345      1017  MEOH      LP1B          -12.6149521704       -9.5735339592       24.3530553601  MEOH      325             0.0000000000
     17346      1018  MEOH      C1            -23.6957497738       36.8981781488       -9.2908914374  MEOH      326             0.0000000000
     17347      1018  MEOH      DC1           -23.7072238830       36.9146398571       -9.2774821875  MEOH      326             0.0000000000
     17348      1018  MEOH      O1            -23.4552632559       37.1159535007      -10.6818031803  MEOH      326             0.0000000000
     17349      1018  MEOH      DO1           -23.4665261619       37.1533955882      -10.6713782552  MEOH      326             0.0000000000
     17350      1018  MEOH      HO1           -22.6491639503       36.6265284241      -10.9088868739  MEOH      326             0.0000000000
     17351      1018  MEOH      HO2           -24.2790232737       36.8826863333      -11.1377701335  MEOH      326             0.0000000000
     17352      1018  MEOH      H1A           -24.6086920817       37.4546200324       -8.9888487694  MEOH      326             0.0000000000
     17353      1018  MEOH      H1B           -22.8214655625       37.2446400218       -8.6993575935  MEOH      326             0.0000000000
     17354      1018  MEOH      H1C           -23.8483600706       35.8131937349       -9.1069351377  MEOH      326             0.0000000000
     17355      1018  MEOH      LP1A          -23.6209601961       36.8728776155      -10.8714308102  MEOH      326             0.0000000000
     17356      1018  MEOH      LP1B          -23.2586378683       37.4021212540      -10.7259220418  MEOH      326             0.0000000000
     17357      1019  MEOH      C1            -11.1308474788      -33.6880930442        8.1625627176  MEOH      327             0.0000000000
     17358      1019  MEOH      DC1           -11.1343831431      -33.6781732754        8.1634878103  MEOH      327             0.0000000000
     17359      1019  MEOH      O1            -10.5636362467      -34.6850401722        9.0105282458  MEOH      327             0.0000000000
     17360      1019  MEOH      DO1           -10.5726576483      -34.6828952992        9.0101904533  MEOH      327             0.0000000000
     17361      1019  MEOH      HO1           -10.0734118537      -35.3031998741        8.4462068591  MEOH      327             0.0000000000
     17362      1019  MEOH      HO2           -10.0827936552      -34.1991966208        9.6987480127  MEOH      327             0.0000000000
     17363      1019  MEOH      H1A           -11.7309912022      -32.9848363893        8.7786622138  MEOH      327             0.0000000000
     17364      1019  MEOH      H1B           -11.7929738817      -34.1661794474        7.4093409590  MEOH      327             0.0000000000
     17365      1019  MEOH      H1C           -10.3227321549      -33.1263957544        7.6470369867  MEOH      327             0.0000000000
     17366      1019  MEOH      LP1A          -10.2475489639      -34.5827879314        9.1206795461  MEOH      327             0.0000000000
     17367      1019  MEOH      LP1B          -10.7891660148      -34.9494801112        9.0518542946  MEOH      327             0.0000000000
     17368      1020  MEOH      C1            -13.7571757759       27.7338187749      -15.6451222547  MEOH      328             0.0000000000
     17369      1020  MEOH      DC1           -13.7534347699       27.7324781331      -15.6460267948  MEOH      328             0.0000000000
     17370      1020  MEOH      O1            -15.1286058197       27.8485068421      -15.2652060836  MEOH      328             0.0000000000
     17371      1020  MEOH      DO1           -15.1291140366       27.8449858200      -15.2595376810  MEOH      328             0.0000000000
     17372      1020  MEOH      HO1           -15.5697415411       28.3405643362      -15.9752615024  MEOH      328             0.0000000000
     17373      1020  MEOH      HO2           -15.4188164311       26.9465867164      -15.0573169578  MEOH      328             0.0000000000
     17374      1020  MEOH      H1A           -13.1707690192       27.2302530431      -14.8470811092  MEOH      328             0.0000000000
     17375      1020  MEOH      H1B           -13.3436953476       28.7498720757      -15.8211637992  MEOH      328             0.0000000000
     17376      1020  MEOH      H1C           -13.6691135199       27.1290805541      -16.5729464434  MEOH      328             0.0000000000
     17377      1020  MEOH      LP1A          -15.3089389905       27.5726601102      -15.3830556828  MEOH      328             0.0000000000
     17378      1020  MEOH      LP1B          -15.1760601242       28.1377865020      -15.0739853541  MEOH      328             0.0000000000
     17379      1021  MEOH      C1             18.1376602511      -23.6514082192       28.9064928063  MEOH      329             0.0000000000
     17380      1021  MEOH      DC1            18.1502724438      -23.6499688958       28.9082021326  MEOH      329             0.0000000000
     17381      1021  MEOH      O1             17.8936381740      -22.5770949898       29.8181324824  MEOH      329             0.0000000000
     17382      1021  MEOH      DO1            17.9067900019      -22.5801679940       29.8274231118  MEOH      329             0.0000000000
     17383      1021  MEOH      HO1            17.1446624872      -22.0739192748       29.4621133533  MEOH      329             0.0000000000
     17384      1021  MEOH      HO2            17.8540391614      -22.9770090513       30.7009691961  MEOH      329             0.0000000000
     17385      1021  MEOH      H1A            19.0484840237      -24.2044862383       29.2208584540  MEOH      329             0.0000000000
     17386      1021  MEOH      H1B            18.2941161881      -23.2460864833       27.8839680731  MEOH      329             0.0000000000
     17387      1021  MEOH      H1C            17.2760620135      -24.3527634661       28.8981085625  MEOH      329             0.0000000000
     17388      1021  MEOH      LP1A           17.6693245823      -22.6794907948       30.0665243336  MEOH      329             0.0000000000
     17389      1021  MEOH      LP1B           18.0857626074      -22.2984585619       29.7289700290  MEOH      329             0.0000000000
     17390      1022  MEOH      C1            -36.9383200822       -3.9980224088       22.6209660083  MEOH      330             0.0000000000
     17391      1022  MEOH      DC1           -36.9100786868       -4.0093438381       22.6206158341  MEOH      330             0.0000000000
     17392      1022  MEOH      O1            -35.5925767922       -4.3922723208       22.3334607594  MEOH      330             0.0000000000
     17393      1022  MEOH      DO1           -35.5750637427       -4.3927885386       22.3265036691  MEOH      330             0.0000000000
     17394      1022  MEOH      HO1           -35.6571954199       -5.2735682622       21.9334083921  MEOH      330             0.0000000000
     17395      1022  MEOH      HO2           -35.2054577293       -3.6630893252       21.8242152482  MEOH      330             0.0000000000
     17396      1022  MEOH      H1A           -36.9612386218       -2.9703349445       23.0424564783  MEOH      330             0.0000000000
     17397      1022  MEOH      H1B           -37.4114782461       -4.7047674950       23.3357762891  MEOH      330             0.0000000000
     17398      1022  MEOH      H1C           -37.5494653283       -4.0091104681       21.6932270666  MEOH      330             0.0000000000
     17399      1022  MEOH      LP1A          -35.5016569183       -4.2832633080       22.0135379380  MEOH      330             0.0000000000
     17400      1022  MEOH      LP1B          -35.4545950285       -4.5572739975       22.6095684912  MEOH      330             0.0000000000
     17401      1023  MEOH      C1             16.2591264632      -30.2443812344       -6.2445584496  MEOH      331             0.0000000000
     17402      1023  MEOH      DC1            16.2594025806      -30.2231480353       -6.2525836735  MEOH      331             0.0000000000
     17403      1023  MEOH      O1             16.6760293544      -29.3968504375       -7.3213496505  MEOH      331             0.0000000000
     17404      1023  MEOH      DO1            16.6747259290      -29.3801730023       -7.3249646031  MEOH      331             0.0000000000
     17405      1023  MEOH      HO1            17.5429820130      -29.0386144826       -7.0744486781  MEOH      331             0.0000000000
     17406      1023  MEOH      HO2            16.6020970509      -29.9376586193       -8.1231978438  MEOH      331             0.0000000000
     17407      1023  MEOH      H1A            15.2629794173      -30.6814902512       -6.4702745789  MEOH      331             0.0000000000
     17408      1023  MEOH      H1B            16.1758050482      -29.6660047107       -5.2996462110  MEOH      331             0.0000000000
     17409      1023  MEOH      H1C            16.9795980510      -31.0771097253       -6.0968934460  MEOH      331             0.0000000000
     17410      1023  MEOH      LP1A           16.8530440059      -29.5833261010       -7.5588209963  MEOH      331             0.0000000000
     17411      1023  MEOH      LP1B           16.5589898815      -29.0710995780       -7.2695023815  MEOH      331             0.0000000000
     17412      1024  MEOH      C1             -8.3054942424       24.8887779720      -22.4481888608  MEOH      332             0.0000000000
     17413      1024  MEOH      DC1            -8.3077896268       24.8975342168      -22.4669104488  MEOH      332             0.0000000000
     17414      1024  MEOH      O1             -7.3117965182       24.1719864680      -21.7166097258  MEOH      332             0.0000000000
     17415      1024  MEOH      DO1            -7.3194826401       24.1693362789      -21.7343764288  MEOH      332             0.0000000000
     17416      1024  MEOH      HO1            -6.5458036810       24.7475526154      -21.5653530453  MEOH      332             0.0000000000
     17417      1024  MEOH      HO2            -7.7724962249       23.7848323887      -20.9558420212  MEOH      332             0.0000000000
     17418      1024  MEOH      H1A            -9.1463788796       24.1943144549      -22.6602135073  MEOH      332             0.0000000000
     17419      1024  MEOH      H1B            -7.8860869842       25.2591079037      -23.4080192070  MEOH      332             0.0000000000
     17420      1024  MEOH      H1C            -8.6849381886       25.7411230079      -21.8449880381  MEOH      332             0.0000000000
     17421      1024  MEOH      LP1A           -7.3651804940       24.2105040840      -21.3728561158  MEOH      332             0.0000000000
     17422      1024  MEOH      LP1B           -7.0984981144       24.0039637960      -21.9374539530  MEOH      332             0.0000000000
     17423      1025  MEOH      C1            -11.1836597388       25.4010979943       -8.5032182589  MEOH      333             0.0000000000
     17424      1025  MEOH      DC1           -11.1803185592       25.3904572544       -8.5031774028  MEOH      333             0.0000000000
     17425      1025  MEOH      O1            -11.7491391508       24.5110109894       -9.4549416280  MEOH      333             0.0000000000
     17426      1025  MEOH      DO1           -11.7509997426       24.4957927133       -9.4439598449  MEOH      333             0.0000000000
     17427      1025  MEOH      HO1           -12.2070292176       25.0624600846      -10.1085015581  MEOH      333             0.0000000000
     17428      1025  MEOH      HO2           -11.0218031752       23.9372379479       -9.7424601075  MEOH      333             0.0000000000
     17429      1025  MEOH      H1A           -10.6244638192       24.8382588474       -7.7255081455  MEOH      333             0.0000000000
     17430      1025  MEOH      H1B           -11.9907364877       25.9874183286       -8.0141614242  MEOH      333             0.0000000000
     17431      1025  MEOH      H1C           -10.4863175907       26.0860535949       -9.0313004056  MEOH      333             0.0000000000
     17432      1025  MEOH      LP1A          -11.5192883287       24.4480135691       -9.7112615932  MEOH      333             0.0000000000
     17433      1025  MEOH      LP1B          -12.0699963138       24.4150622346       -9.3532336271  MEOH      333             0.0000000000
     17434      1026  MEOH      C1             24.0380792833      -27.1492009518       15.5671157735  MEOH      334             0.0000000000
     17435      1026  MEOH      DC1            24.0399463958      -27.1429917733       15.5705803335  MEOH      334             0.0000000000
     17436      1026  MEOH      O1             22.6991615522      -27.1745091706       15.0887833974  MEOH      334             0.0000000000
     17437      1026  MEOH      DO1            22.6937736875      -27.1515943275       15.1021446422  MEOH      334             0.0000000000
     17438      1026  MEOH      HO1            22.2837711552      -27.9786440806       15.4376642727  MEOH      334             0.0000000000
     17439      1026  MEOH      HO2            22.3295925280      -26.2874250297       15.2206942132  MEOH      334             0.0000000000
     17440      1026  MEOH      H1A            24.5463939792      -26.2415910539       15.1770113732  MEOH      334             0.0000000000
     17441      1026  MEOH      H1B            24.5822356400      -28.0562002614       15.2271641395  MEOH      334             0.0000000000
     17442      1026  MEOH      H1C            24.0560242248      -27.1337139798       16.6778628794  MEOH      334             0.0000000000
     17443      1026  MEOH      LP1A           22.4891065500      -27.0054560264       15.3119378966  MEOH      334             0.0000000000
     17444      1026  MEOH      LP1B           22.6855805025      -27.3379202212       14.7795708756  MEOH      334             0.0000000000
     17445      1027  MEOH      C1            -36.8452567527      -13.8456124877       13.0224947714  MEOH      335             0.0000000000
     17446      1027  MEOH      DC1           -36.8432469660      -13.8471363694       13.0258389314  MEOH      335             0.0000000000
     17447      1027  MEOH      O1            -35.7444935986      -14.7447108151       12.8648757568  MEOH      335             0.0000000000
     17448      1027  MEOH      DO1           -35.7414024955      -14.7393732609       12.8622605734  MEOH      335             0.0000000000
     17449      1027  MEOH      HO1           -36.0826822665      -15.6463897275       12.9810805953  MEOH      335             0.0000000000
     17450      1027  MEOH      HO2           -35.2977066011      -14.4862935055       12.0435951270  MEOH      335             0.0000000000
     17451      1027  MEOH      H1A           -36.4670273175      -12.8017433305       13.0625032504  MEOH      335             0.0000000000
     17452      1027  MEOH      H1B           -37.3815597111      -14.0515755022       13.9734308229  MEOH      335             0.0000000000
     17453      1027  MEOH      H1C           -37.5455860616      -13.9310933083       12.1642681764  MEOH      335             0.0000000000
     17454      1027  MEOH      LP1A          -35.7101868281      -14.8340831219       12.5282221719  MEOH      335             0.0000000000
     17455      1027  MEOH      LP1B          -35.5874998903      -14.7969642828       13.1732951963  MEOH      335             0.0000000000
     17456      1028  MEOH      C1              6.0330109236      -29.3796048831      -33.7392508570  MEOH      336             0.0000000000
     17457      1028  MEOH      DC1             6.0320549024      -29.3887158560      -33.7404607299  MEOH      336             0.0000000000
     17458      1028  MEOH      O1              4.7045410933      -29.8760963236      -33.8583133839  MEOH      336             0.0000000000
     17459      1028  MEOH      DO1             4.7081197438      -29.8891308571      -33.8706179143  MEOH      336             0.0000000000
     17460      1028  MEOH      HO1             4.4089201579      -30.1821208492      -32.9866154696  MEOH      336             0.0000000000
     17461      1028  MEOH      HO2             4.2029591742      -29.1929140516      -34.3300946485  MEOH      336             0.0000000000
     17462      1028  MEOH      H1A             6.3806097074      -29.0005879099      -34.7240565341  MEOH      336             0.0000000000
     17463      1028  MEOH      H1B             6.7086859626      -30.1889503161      -33.3889021559  MEOH      336             0.0000000000
     17464      1028  MEOH      H1C             6.0572247222      -28.5510783677      -32.9994681150  MEOH      336             0.0000000000
     17465      1028  MEOH      LP1A            4.4748946946      -29.6166842839      -33.8086351671  MEOH      336             0.0000000000
     17466      1028  MEOH      LP1B            4.7107906055      -30.2165567742      -33.9392307812  MEOH      336             0.0000000000
     17467      1029  MEOH      C1             -3.2431578280       29.8205308044       26.3683338814  MEOH      337             0.0000000000
     17468      1029  MEOH      DC1            -3.2348220366       29.8156858913       26.3781582575  MEOH      337             0.0000000000
     17469      1029  MEOH      O1             -4.0856905893       28.8383019100       25.7645225903  MEOH      337             0.0000000000
     17470      1029  MEOH      DO1            -4.0825359453       28.8388220886       25.7701833418  MEOH      337             0.0000000000
     17471      1029  MEOH      HO1            -4.1346239394       28.0687952307       26.3530504126  MEOH      337             0.0000000000
     17472      1029  MEOH      HO2            -4.8963561876       29.3021528361       25.5026760573  MEOH      337             0.0000000000
     17473      1029  MEOH      H1A            -3.1109201678       30.6668874935       25.6608633473  MEOH      337             0.0000000000
     17474      1029  MEOH      H1B            -2.2478368330       29.3882961303       26.6067249537  MEOH      337             0.0000000000
     17475      1029  MEOH      H1C            -3.7214264109       30.2111703010       27.2919035582  MEOH      337             0.0000000000
     17476      1029  MEOH      LP1A           -4.4183263507       28.8910409935       25.8597698438  MEOH      337             0.0000000000
     17477      1029  MEOH      LP1B           -3.8959776857       28.6278390189       25.5590611932  MEOH      337             0.0000000000
     17478      1030  MEOH      C1            -23.6762889065      -20.8057425093      -19.3326782515  MEOH      338             0.0000000000
     17479      1030  MEOH      DC1           -23.6907896001      -20.8030419169      -19.3281105892  MEOH      338             0.0000000000
     17480      1030  MEOH      O1            -24.2491082849      -20.3508696720      -18.1132233187  MEOH      338             0.0000000000
     17481      1030  MEOH      DO1           -24.2660059837      -20.3451633408      -18.1012445548  MEOH      338             0.0000000000
     17482      1030  MEOH      HO1           -23.6726177063      -19.6250859238      -17.8272223334  MEOH      338             0.0000000000
     17483      1030  MEOH      HO2           -25.1898293508      -20.2101797914      -18.3033554697  MEOH      338             0.0000000000
     17484      1030  MEOH      H1A           -24.1874159747      -21.7267298081      -19.6860230062  MEOH      338             0.0000000000
     17485      1030  MEOH      H1B           -22.5995386667      -21.0292425028      -19.1746349794  MEOH      338             0.0000000000
     17486      1030  MEOH      H1C           -23.7747606240      -20.0110798931      -20.1028312543  MEOH      338             0.0000000000
     17487      1030  MEOH      LP1A          -24.4874885076      -20.1029433911      -18.1780880140  MEOH      338             0.0000000000
     17488      1030  MEOH      LP1B          -24.1154300057      -20.5301304463      -17.8439730774  MEOH      338             0.0000000000
     17489      1031  MEOH      C1             32.7096314313      -12.6179501268        2.4958591868  MEOH      339             0.0000000000
     17490      1031  MEOH      DC1            32.7084854257      -12.6193180210        2.4900629007  MEOH      339             0.0000000000
     17491      1031  MEOH      O1             32.9968167170      -13.7197451208        3.3523292623  MEOH      339             0.0000000000
     17492      1031  MEOH      DO1            33.0022407850      -13.7155664011        3.3537712809  MEOH      339             0.0000000000
     17493      1031  MEOH      HO1            32.4122129819      -14.4556481803        3.1123601811  MEOH      339             0.0000000000
     17494      1031  MEOH      HO2            33.9607612074      -13.8265715300        3.3350336139  MEOH      339             0.0000000000
     17495      1031  MEOH      H1A            33.2728852459      -11.7230985003        2.8368968781  MEOH      339             0.0000000000
     17496      1031  MEOH      H1B            31.6218095473      -12.3938546615        2.5231680190  MEOH      339             0.0000000000
     17497      1031  MEOH      H1C            33.0282537438      -12.8625379324        1.4600128528  MEOH      339             0.0000000000
     17498      1031  MEOH      LP1A           33.2493955033      -13.9175126531        3.2123579800  MEOH      339             0.0000000000
     17499      1031  MEOH      LP1B           32.8005614347      -13.7009005495        3.6415156145  MEOH      339             0.0000000000
     17500      1032  MEOH      C1            -21.3436873423       27.6881165058      -30.0054681248  MEOH      340             0.0000000000
     17501      1032  MEOH      DC1           -21.3429156727       27.6819176388      -30.0054057877  MEOH      340             0.0000000000
     17502      1032  MEOH      O1            -21.6080054484       28.8279297575      -29.1937723915  MEOH      340             0.0000000000
     17503      1032  MEOH      DO1           -21.6016518162       28.8188302721      -29.1928789117  MEOH      340             0.0000000000
     17504      1032  MEOH      HO1           -21.1211572858       29.5787284105      -29.5681789228  MEOH      340             0.0000000000
     17505      1032  MEOH      HO2           -22.5747481949       28.8758127590      -29.1304029965  MEOH      340             0.0000000000
     17506      1032  MEOH      H1A           -21.8957230130       26.8164904338      -29.5933448316  MEOH      340             0.0000000000
     17507      1032  MEOH      H1B           -20.2556869804       27.4632293924      -30.0040535212  MEOH      340             0.0000000000
     17508      1032  MEOH      H1C           -21.6861957837       27.8667673640      -31.0471460208  MEOH      340             0.0000000000
     17509      1032  MEOH      LP1A          -21.8927300901       28.9946347496      -29.3105684702  MEOH      340             0.0000000000
     17510      1032  MEOH      LP1B          -21.3744574821       28.8464765557      -28.9337505391  MEOH      340             0.0000000000
     17511      1033  MEOH      C1            -10.5637979958       19.8599658016      -22.6479032840  MEOH      341             0.0000000000
     17512      1033  MEOH      DC1           -10.5626378158       19.8732721562      -22.6582367956  MEOH      341             0.0000000000
     17513      1033  MEOH      O1             -9.6334937340       20.4051983894      -21.7069389515  MEOH      341             0.0000000000
     17514      1033  MEOH      DO1            -9.6346664931       20.4084749990      -21.7087936874  MEOH      341             0.0000000000
     17515      1033  MEOH      HO1            -8.7533029949       20.4353599794      -22.1134540696  MEOH      341             0.0000000000
     17516      1033  MEOH      HO2           -10.0552874705       21.1820637125      -21.3076016072  MEOH      341             0.0000000000
     17517      1033  MEOH      H1A           -11.5333070993       19.6827451608      -22.1351012316  MEOH      341             0.0000000000
     17518      1033  MEOH      H1B           -10.1945632865       18.8855815022      -23.0333406553  MEOH      341             0.0000000000
     17519      1033  MEOH      H1C           -10.7331442131       20.5681088724      -23.4870553858  MEOH      341             0.0000000000
     17520      1033  MEOH      LP1A           -9.6225544361       20.7536800193      -21.7376128066  MEOH      341             0.0000000000
     17521      1033  MEOH      LP1B           -9.4972480626       20.1490596851      -21.5111582548  MEOH      341             0.0000000000
     17522      1034  MEOH      C1            -30.7012823046      -26.3889566054      -14.5248102703  MEOH      342             0.0000000000
     17523      1034  MEOH      DC1           -30.7065521003      -26.3854191075      -14.4974506218  MEOH      342             0.0000000000
     17524      1034  MEOH      O1            -30.8725409735      -26.1220007328      -15.9140071739  MEOH      342             0.0000000000
     17525      1034  MEOH      DO1           -30.8813651108      -26.1214928612      -15.8967350547  MEOH      342             0.0000000000
     17526      1034  MEOH      HO1           -31.7518488241      -25.7436992272      -16.0708691345  MEOH      342             0.0000000000
     17527      1034  MEOH      HO2           -30.0811988628      -25.6321359645      -16.1873387913  MEOH      342             0.0000000000
     17528      1034  MEOH      H1A           -29.7065591631      -26.8591835130      -14.3707533725  MEOH      342             0.0000000000
     17529      1034  MEOH      H1B           -31.4900875171      -27.0845475540      -14.1666754229  MEOH      342             0.0000000000
     17530      1034  MEOH      H1C           -30.7472290658      -25.4361407994      -13.9552912307  MEOH      342             0.0000000000
     17531      1034  MEOH      LP1A          -30.7593019867      -25.7993716763      -15.9887562457  MEOH      342             0.0000000000
     17532      1034  MEOH      LP1B          -31.0039881078      -26.4037602713      -16.0747343133  MEOH      342             0.0000000000
     17533      1035  MEOH      C1            -29.5815756113       11.8014937036       28.6906805184  MEOH      343             0.0000000000
     17534      1035  MEOH      DC1           -29.5815054638       11.8167450769       28.6915688487  MEOH      343             0.0000000000
     17535      1035  MEOH      O1            -29.5104595727       12.8113923771       27.6862463514  MEOH      343             0.0000000000
     17536      1035  MEOH      DO1           -29.5078145236       12.8292292705       27.6877642181  MEOH      343             0.0000000000
     17537      1035  MEOH      HO1           -29.7507521318       13.6425528067       28.1248028780  MEOH      343             0.0000000000
     17538      1035  MEOH      HO2           -28.6430980865       12.7011183526       27.2662181478  MEOH      343             0.0000000000
     17539      1035  MEOH      H1A           -29.3864005728       10.8098585297       28.2292833074  MEOH      343             0.0000000000
     17540      1035  MEOH      H1B           -30.5928104957       11.7797657530       29.1503030873  MEOH      343             0.0000000000
     17541      1035  MEOH      H1C           -28.8099644615       11.9821767569       29.4693273370  MEOH      343             0.0000000000
     17542      1035  MEOH      LP1A          -29.1869147640       12.9441913426       27.6727115259  MEOH      343             0.0000000000
     17543      1035  MEOH      LP1B          -29.8189424701       12.8402322656       27.5234379890  MEOH      343             0.0000000000
     17544      1036  MEOH      C1             36.0113108896      -32.8897527948      -34.5782765374  MEOH      344             0.0000000000
     17545      1036  MEOH      DC1            36.0084806021      -32.8830380108      -34.5846710847  MEOH      344             0.0000000000
     17546      1036  MEOH      O1             37.2315687236      -33.6100365135      -34.7577999756  MEOH      344             0.0000000000
     17547      1036  MEOH      DO1            37.2275482862      -33.6126694898      -34.7666360964  MEOH      344             0.0000000000
     17548      1036  MEOH      HO1            37.1582551765      -34.4324153055      -34.2486651735  MEOH      344             0.0000000000
     17549      1036  MEOH      HO2            37.4152611653      -33.6179092319      -35.7102153824  MEOH      344             0.0000000000
     17550      1036  MEOH      H1A            36.0999335804      -31.8834273061      -35.0406357394  MEOH      344             0.0000000000
     17551      1036  MEOH      H1B            35.7979471487      -32.7699387250      -33.4945600139  MEOH      344             0.0000000000
     17552      1036  MEOH      H1C            35.1772476244      -33.4477230328      -35.0550665154  MEOH      344             0.0000000000
     17553      1036  MEOH      LP1A           37.2079653440      -33.8173658004      -35.0387936540  MEOH      344             0.0000000000
     17554      1036  MEOH      LP1B           37.4636717577      -33.5150495604      -34.5136572709  MEOH      344             0.0000000000
     17555      1037  MEOH      C1             27.1539073638       -9.6174210912       -9.5729019293  MEOH      345             0.0000000000
     17556      1037  MEOH      DC1            27.1569989871       -9.6143048727       -9.5819203198  MEOH      345             0.0000000000
     17557      1037  MEOH      O1             26.1182470079       -9.0086769780       -8.8024490720  MEOH      345             0.0000000000
     17558      1037  MEOH      DO1            26.1140660605       -9.0084066533       -8.8102566911  MEOH      345             0.0000000000
     17559      1037  MEOH      HO1            25.6059291267       -9.7362098123       -8.4162802442  MEOH      345             0.0000000000
     17560      1037  MEOH      HO2            26.5664947409       -8.3766378001       -8.2189249088  MEOH      345             0.0000000000
     17561      1037  MEOH      H1A            27.7667338879       -8.8316304664      -10.0641225978  MEOH      345             0.0000000000
     17562      1037  MEOH      H1B            26.7064384499      -10.2784982737      -10.3456046744  MEOH      345             0.0000000000
     17563      1037  MEOH      H1C            27.8021495727      -10.2284361459       -8.9090016037  MEOH      345             0.0000000000
     17564      1037  MEOH      LP1A           26.2300918879       -8.9511332592       -8.4758308802  MEOH      345             0.0000000000
     17565      1037  MEOH      LP1B           25.8365621669       -8.9537166855       -9.0027813374  MEOH      345             0.0000000000
     17566      1038  MEOH      C1              1.6999217488      -36.3549305077       -4.4822782126  MEOH      346             0.0000000000
     17567      1038  MEOH      DC1             1.6877758313      -36.3422291733       -4.5044977405  MEOH      346             0.0000000000
     17568      1038  MEOH      O1              1.0356360254      -35.1850801754       -4.9711616592  MEOH      346             0.0000000000
     17569      1038  MEOH      DO1             1.0302400565      -35.1727473000       -4.9928139173  MEOH      346             0.0000000000
     17570      1038  MEOH      HO1             0.0893685016      -35.3960197374       -4.9398203819  MEOH      346             0.0000000000
     17571      1038  MEOH      HO2             1.3732408015      -34.4572425273       -4.4260237195  MEOH      346             0.0000000000
     17572      1038  MEOH      H1A             2.8000931202      -36.2002948812       -4.4879154345  MEOH      346             0.0000000000
     17573      1038  MEOH      H1B             1.4494716353      -37.2313581549       -5.1174713489  MEOH      346             0.0000000000
     17574      1038  MEOH      H1C             1.3883773187      -36.5666766853       -3.4370870223  MEOH      346             0.0000000000
     17575      1038  MEOH      LP1A            0.9688380935      -34.9659575865       -4.7065424471  MEOH      346             0.0000000000
     17576      1038  MEOH      LP1B            1.0014772104      -35.2033755966       -5.3190099780  MEOH      346             0.0000000000
     17577      1039  MEOH      C1             33.8858095435        3.1057742988      -20.5224979159  MEOH      347             0.0000000000
     17578      1039  MEOH      DC1            33.8773568196        3.0994399187      -20.5070738275  MEOH      347             0.0000000000
     17579      1039  MEOH      O1             34.9272186088        2.3822025659      -21.1658175345  MEOH      347             0.0000000000
     17580      1039  MEOH      DO1            34.9217334081        2.3799624278      -21.1601494185  MEOH      347             0.0000000000
     17581      1039  MEOH      HO1            35.2588862728        2.9361866327      -21.8896947440  MEOH      347             0.0000000000
     17582      1039  MEOH      HO2            35.5189896232        2.0745811364      -20.4614908179  MEOH      347             0.0000000000
     17583      1039  MEOH      H1A            33.4357847620        2.4763073949      -19.7252714025  MEOH      347             0.0000000000
     17584      1039  MEOH      H1B            33.1077373869        3.3674734622      -21.2711221654  MEOH      347             0.0000000000
     17585      1039  MEOH      H1C            34.2974663232        4.0379975154      -20.0799828630  MEOH      347             0.0000000000
     17586      1039  MEOH      LP1A           35.2339336722        2.4519118485      -21.0123037378  MEOH      347             0.0000000000
     17587      1039  MEOH      LP1B           34.7943534117        2.1819785504      -21.4202918614  MEOH      347             0.0000000000
     17588      1040  MEOH      C1            -35.5627835861      -24.2859869279      -16.6877195036  MEOH      348             0.0000000000
     17589      1040  MEOH      DC1           -35.5612134202      -24.2770212782      -16.6705189113  MEOH      348             0.0000000000
     17590      1040  MEOH      O1            -36.6172780466      -24.1609827825      -17.6375304683  MEOH      348             0.0000000000
     17591      1040  MEOH      DO1           -36.6235729458      -24.1429258602      -17.6221728823  MEOH      348             0.0000000000
     17592      1040  MEOH      HO1           -37.1175092077      -24.9919955089      -17.6282227266  MEOH      348             0.0000000000
     17593      1040  MEOH      HO2           -37.0632220679      -23.3284433361      -17.4163698917  MEOH      348             0.0000000000
     17594      1040  MEOH      H1A           -34.9556194351      -23.3560721952      -16.7182364682  MEOH      348             0.0000000000
     17595      1040  MEOH      H1B           -34.9328947312      -25.1620988428      -16.9522737393  MEOH      348             0.0000000000
     17596      1040  MEOH      H1C           -35.9707801223      -24.4168334282      -15.6626638857  MEOH      348             0.0000000000
     17597      1040  MEOH      LP1A          -36.9007215620      -24.0241940732      -17.4844010373  MEOH      348             0.0000000000
     17598      1040  MEOH      LP1B          -36.5075064335      -24.2661376170      -17.9527964730  MEOH      348             0.0000000000
     17599      1041  MEOH      C1             -7.6329481557       31.5448370290       33.7187751597  MEOH      349             0.0000000000
     17600      1041  MEOH      DC1            -7.6342430934       31.5387930681       33.7179019689  MEOH      349             0.0000000000
     17601      1041  MEOH      O1             -7.1963818559       32.4628303881       34.7202148725  MEOH      349             0.0000000000
     17602      1041  MEOH      DO1            -7.1994215176       32.4648020051       34.7169899931  MEOH      349             0.0000000000
     17603      1041  MEOH      HO1            -6.7301839062       31.9504184766       35.3991798971  MEOH      349             0.0000000000
     17604      1041  MEOH      HO2            -6.7373716007       33.1725531738       34.2442913978  MEOH      349             0.0000000000
     17605      1041  MEOH      H1A            -8.2514253272       32.0733492354       32.9621498661  MEOH      349             0.0000000000
     17606      1041  MEOH      H1B            -8.2513872380       30.7602209015       34.2048118189  MEOH      349             0.0000000000
     17607      1041  MEOH      H1C            -6.7610938757       31.0748591400       33.2154741571  MEOH      349             0.0000000000
     17608      1041  MEOH      LP1A           -6.8792156089       32.5866029166       34.6390611116  MEOH      349             0.0000000000
     17609      1041  MEOH      LP1B           -7.4449834870       32.5017423952       34.9634906105  MEOH      349             0.0000000000
     17610      1042  MEOH      C1              9.2683933403      -31.3722736178        4.6170095851  MEOH      350             0.0000000000
     17611      1042  MEOH      DC1             9.2634691851      -31.3713778650        4.6311039072  MEOH      350             0.0000000000
     17612      1042  MEOH      O1             10.5553581225      -30.9650436634        4.1566992085  MEOH      350             0.0000000000
     17613      1042  MEOH      DO1            10.5574589418      -30.9643417260        4.1661957323  MEOH      350             0.0000000000
     17614      1042  MEOH      HO1            10.9814285690      -30.4655824064        4.8707737336  MEOH      350             0.0000000000
     17615      1042  MEOH      HO2            10.9675234746      -31.7651740000        3.7950209425  MEOH      350             0.0000000000
     17616      1042  MEOH      H1A             8.7087316752      -31.8281729189        3.7724649457  MEOH      350             0.0000000000
     17617      1042  MEOH      H1B             8.7045286562      -30.4901798574        4.9888808236  MEOH      350             0.0000000000
     17618      1042  MEOH      H1C             9.3661206972      -32.1164500755        5.4361382465  MEOH      350             0.0000000000
     17619      1042  MEOH      LP1A           10.7923962458      -31.2118463655        4.2301931155  MEOH      350             0.0000000000
     17620      1042  MEOH      LP1B           10.5323943154      -30.6550347900        3.9958664942  MEOH      350             0.0000000000
     17621      1043  MEOH      C1            -33.0678718625       13.9361021903      -24.3274101099  MEOH      351             0.0000000000
     17622      1043  MEOH      DC1           -33.0717480362       13.9273344131      -24.3353606839  MEOH      351             0.0000000000
     17623      1043  MEOH      O1            -32.3693247634       14.8925992696      -23.5398118825  MEOH      351             0.0000000000
     17624      1043  MEOH      DO1           -32.3798025951       14.8875945879      -23.5512379388  MEOH      351             0.0000000000
     17625      1043  MEOH      HO1           -31.7112671459       15.3494705986      -24.0867385339  MEOH      351             0.0000000000
     17626      1043  MEOH      HO2           -33.0434882473       15.3967951088      -23.0579507482  MEOH      351             0.0000000000
     17627      1043  MEOH      H1A           -33.6892788362       13.3253717669      -23.6380751235  MEOH      351             0.0000000000
     17628      1043  MEOH      H1B           -32.3515270213       13.2724997835      -24.8573185115  MEOH      351             0.0000000000
     17629      1043  MEOH      H1C           -33.7319606558       14.4451890617      -25.0582573125  MEOH      351             0.0000000000
     17630      1043  MEOH      LP1A          -32.5372426611       15.1995914356      -23.5475183516  MEOH      351             0.0000000000
     17631      1043  MEOH      LP1B          -32.0900793171       14.7436291840      -23.3903799772  MEOH      351             0.0000000000
     17632      1044  MEOH      C1             29.0558151022       -9.2806242069        0.6860468396  MEOH      352             0.0000000000
     17633      1044  MEOH      DC1            29.0528411275       -9.2868477946        0.6883186201  MEOH      352             0.0000000000
     17634      1044  MEOH      O1             29.6946144069       -8.2423276699        1.4330503588  MEOH      352             0.0000000000
     17635      1044  MEOH      DO1            29.6939681243       -8.2431348996        1.4352521782  MEOH      352             0.0000000000
     17636      1044  MEOH      HO1            29.0230677013       -7.8273749712        1.9967340289  MEOH      352             0.0000000000
     17637      1044  MEOH      HO2            30.4907321812       -8.6393717092        1.8196412557  MEOH      352             0.0000000000
     17638      1044  MEOH      H1A            29.7739010373       -9.6888581413       -0.0569327333  MEOH      352             0.0000000000
     17639      1044  MEOH      H1B            28.1794870543       -8.8710669204        0.1395736178  MEOH      352             0.0000000000
     17640      1044  MEOH      H1C            28.7284790388      -10.0960620659        1.3659241812  MEOH      352             0.0000000000
     17641      1044  MEOH      LP1A           29.8216359290       -8.3711876748        1.7326511466  MEOH      352             0.0000000000
     17642      1044  MEOH      LP1B           29.6845498639       -7.9420881233        1.2534538120  MEOH      352             0.0000000000
     17643      1045  MEOH      C1             31.4826756517      -22.6927725854        6.6959203589  MEOH      353             0.0000000000
     17644      1045  MEOH      DC1            31.4868862981      -22.6665403795        6.7000279552  MEOH      353             0.0000000000
     17645      1045  MEOH      O1             31.1260521342      -24.0352251299        7.0221289311  MEOH      353             0.0000000000
     17646      1045  MEOH      DO1            31.1245664242      -24.0139219679        7.0283474748  MEOH      353             0.0000000000
     17647      1045  MEOH      HO1            30.6564694328      -24.4174139739        6.2642874076  MEOH      353             0.0000000000
     17648      1045  MEOH      HO2            31.9492710806      -24.4544894616        7.3178111702  MEOH      353             0.0000000000
     17649      1045  MEOH      H1A            32.0059024444      -22.2343596317        7.5621837652  MEOH      353             0.0000000000
     17650      1045  MEOH      H1B            30.5683848152      -22.1046643228        6.4667437065  MEOH      353             0.0000000000
     17651      1045  MEOH      H1C            32.1530848308      -22.6898238259        5.8099949459  MEOH      353             0.0000000000
     17652      1045  MEOH      LP1A           31.3843016253      -24.2531924815        6.9310386792  MEOH      353             0.0000000000
     17653      1045  MEOH      LP1B           30.8128679180      -24.0413159988        7.1782652433  MEOH      353             0.0000000000
     17654      1046  MEOH      C1             22.7457342097       14.2489928919       30.8066596902  MEOH      354             0.0000000000
     17655      1046  MEOH      DC1            22.7579084546       14.2696494688       30.7963425972  MEOH      354             0.0000000000
     17656      1046  MEOH      O1             23.1463290191       15.4139297997       30.0816197797  MEOH      354             0.0000000000
     17657      1046  MEOH      DO1            23.1613812517       15.4269243765       30.0737846123  MEOH      354             0.0000000000
     17658      1046  MEOH      HO1            23.3662170773       15.1082580774       29.1876879918  MEOH      354             0.0000000000
     17659      1046  MEOH      HO2            22.4304604426       16.0564102145       30.2067241276  MEOH      354             0.0000000000
     17660      1046  MEOH      H1A            22.4738520187       14.5195527198       31.8493477809  MEOH      354             0.0000000000
     17661      1046  MEOH      H1B            23.5705117188       13.5053229560       30.8385671658  MEOH      354             0.0000000000
     17662      1046  MEOH      H1C            21.8644399798       13.7811632873       30.3180116129  MEOH      354             0.0000000000
     17663      1046  MEOH      LP1A           22.8675047380       15.5636994701       29.9322006840  MEOH      354             0.0000000000
     17664      1046  MEOH      LP1B           23.4904602827       15.4657050222       30.1189426916  MEOH      354             0.0000000000
     17665      1047  MEOH      C1             13.6896720469      -12.3916975829       34.5686619995  MEOH      355             0.0000000000
     17666      1047  MEOH      DC1            13.6843776665      -12.4024467403       34.5668027346  MEOH      355             0.0000000000
     17667      1047  MEOH      O1             13.3405087143      -13.7642088281       34.3953949412  MEOH      355             0.0000000000
     17668      1047  MEOH      DO1            13.3399835929      -13.7765041745       34.3853236041  MEOH      355             0.0000000000
     17669      1047  MEOH      HO1            14.0667050072      -14.2625843074       34.8017947774  MEOH      355             0.0000000000
     17670      1047  MEOH      HO2            12.4399433644      -13.8444670941       34.7467361732  MEOH      355             0.0000000000
     17671      1047  MEOH      H1A            12.9286130728      -11.7409570531       34.0873647910  MEOH      355             0.0000000000
     17672      1047  MEOH      H1B            14.6733911369      -12.1627745751       34.1058315673  MEOH      355             0.0000000000
     17673      1047  MEOH      H1C            13.7547049230      -12.1609076676       35.6534789150  MEOH      355             0.0000000000
     17674      1047  MEOH      LP1A           13.1478757939      -13.8738400058       34.6662704899  MEOH      355             0.0000000000
     17675      1047  MEOH      LP1B           13.4648943131      -13.8817509579       34.0900884222  MEOH      355             0.0000000000
     17676      1048  MEOH      C1            -12.8279651947       -8.8767815468       12.9408505512  MEOH      356             0.0000000000
     17677      1048  MEOH      DC1           -12.8316949513       -8.9201939875       12.9418537368  MEOH      356             0.0000000000
     17678      1048  MEOH      O1            -11.7239590281       -8.7733989147       13.8398980093  MEOH      356             0.0000000000
     17679      1048  MEOH      DO1           -11.7206647377       -8.8074937099       13.8326073915  MEOH      356             0.0000000000
     17680      1048  MEOH      HO1           -11.8765991871       -9.2915934619       14.6455501632  MEOH      356             0.0000000000
     17681      1048  MEOH      HO2           -10.9072518223       -8.7904618173       13.3168318587  MEOH      356             0.0000000000
     17682      1048  MEOH      H1A           -12.8011777386       -7.9923835645       12.2689549927  MEOH      356             0.0000000000
     17683      1048  MEOH      H1B           -13.7925975883       -8.8592513366       13.4917571105  MEOH      356             0.0000000000
     17684      1048  MEOH      H1C           -12.7460275069       -9.7833455378       12.3038662916  MEOH      356             0.0000000000
     17685      1048  MEOH      LP1A          -11.4887339964       -9.0229127034       13.7698119644  MEOH      356             0.0000000000
     17686      1048  MEOH      LP1B          -11.7686331262       -8.4996419081       14.0533490022  MEOH      356             0.0000000000
     17687      1049  MEOH      C1             30.3531593613      -21.7849156381      -31.1276786205  MEOH      357             0.0000000000
     17688      1049  MEOH      DC1            30.3692002817      -21.7714599015      -31.1510794274  MEOH      357             0.0000000000
     17689      1049  MEOH      O1             31.2873085738      -21.0018128108      -31.8713288435  MEOH      357             0.0000000000
     17690      1049  MEOH      DO1            31.2965150272      -20.9934281782      -31.8854179233  MEOH      357             0.0000000000
     17691      1049  MEOH      HO1            31.7366603109      -20.4458505957      -31.2156696089  MEOH      357             0.0000000000
     17692      1049  MEOH      HO2            31.7983104245      -21.6378580516      -32.3959463816  MEOH      357             0.0000000000
     17693      1049  MEOH      H1A            29.7256756208      -22.4016667853      -31.8060613871  MEOH      357             0.0000000000
     17694      1049  MEOH      H1B            29.6891868902      -21.1315517418      -30.5222224474  MEOH      357             0.0000000000
     17695      1049  MEOH      H1C            30.8939186040      -22.4734113674      -30.4436654096  MEOH      357             0.0000000000
     17696      1049  MEOH      LP1A           31.5921439931      -21.1718181829      -31.8972815054  MEOH      357             0.0000000000
     17697      1049  MEOH      LP1B           31.1356519384      -20.7055972852      -31.9797568256  MEOH      357             0.0000000000
     17698      1050  MEOH      C1             -6.5307349678      -14.3815462977        0.5502274429  MEOH      358             0.0000000000
     17699      1050  MEOH      DC1            -6.5310855574      -14.3820277996        0.5520044515  MEOH      358             0.0000000000
     17700      1050  MEOH      O1             -6.8941610290      -13.2010483364        1.2740497652  MEOH      358             0.0000000000
     17701      1050  MEOH      DO1            -6.8971255002      -13.2072744316        1.2801535138  MEOH      358             0.0000000000
     17702      1050  MEOH      HO1            -6.6491810754      -12.4262122411        0.7444141851  MEOH      358             0.0000000000
     17703      1050  MEOH      HO2            -7.7981101159      -13.3403927041        1.5970965056  MEOH      358             0.0000000000
     17704      1050  MEOH      H1A            -6.6524201596      -15.2705478249        1.2053533852  MEOH      358             0.0000000000
     17705      1050  MEOH      H1B            -5.4704833737      -14.3187529266        0.2242756826  MEOH      358             0.0000000000
     17706      1050  MEOH      H1C            -7.1861389918      -14.5050807617       -0.3383139470  MEOH      358             0.0000000000
     17707      1050  MEOH      LP1A           -7.2228632676      -13.1093742803        1.1962634826  MEOH      358             0.0000000000
     17708      1050  MEOH      LP1B           -6.6302728710      -13.1017993039        1.4814447256  MEOH      358             0.0000000000
     17709      1051  MEOH      C1             -3.1845177665      -35.2367517622       -2.0159931749  MEOH      359             0.0000000000
     17710      1051  MEOH      DC1            -3.1889388048      -35.2308478249       -2.0245843219  MEOH      359             0.0000000000
     17711      1051  MEOH      O1             -1.9266894416      -34.5841975506       -2.1896305675  MEOH      359             0.0000000000
     17712      1051  MEOH      DO1            -1.9381989437      -34.5736021267       -2.2135500786  MEOH      359             0.0000000000
     17713      1051  MEOH      HO1            -1.3051894054      -35.2067487886       -2.5983696810  MEOH      359             0.0000000000
     17714      1051  MEOH      HO2            -2.1037426462      -33.6907480361       -2.5232473053  MEOH      359             0.0000000000
     17715      1051  MEOH      H1A            -3.7722380296      -34.7072056229       -1.2359375495  MEOH      359             0.0000000000
     17716      1051  MEOH      H1B            -3.0324674498      -36.2887570195       -1.6927492403  MEOH      359             0.0000000000
     17717      1051  MEOH      H1C            -3.7474297817      -35.2212316120       -2.9737040857  MEOH      359             0.0000000000
     17718      1051  MEOH      LP1A           -1.9174112805      -34.4227930022       -2.5000536458  MEOH      359             0.0000000000
     17719      1051  MEOH      LP1B           -1.7293537859      -34.6265972976       -1.9036919370  MEOH      359             0.0000000000
     17720      1052  MEOH      C1             13.8047558836      -30.7638901595       30.0149446427  MEOH      360             0.0000000000
     17721      1052  MEOH      DC1            13.8012198669      -30.7538927372       30.0271435345  MEOH      360             0.0000000000
     17722      1052  MEOH      O1             14.8913403260      -30.8814269007       30.9406833163  MEOH      360             0.0000000000
     17723      1052  MEOH      DO1            14.8894345501      -30.8666258005       30.9460311067  MEOH      360             0.0000000000
     17724      1052  MEOH      HO1            14.6224403613      -30.5061065167       31.7937527273  MEOH      360             0.0000000000
     17725      1052  MEOH      HO2            15.1814849158      -31.8055758967       30.8890620996  MEOH      360             0.0000000000
     17726      1052  MEOH      H1A            14.1140952103      -31.1832336118       29.0337304703  MEOH      360             0.0000000000
     17727      1052  MEOH      H1B            13.5367377676      -29.6958353317       29.8674787993  MEOH      360             0.0000000000
     17728      1052  MEOH      H1C            12.9214974878      -31.3306781653       30.3795361438  MEOH      360             0.0000000000
     17729      1052  MEOH      LP1A           14.8732315534      -31.1882015740       31.1081986055  MEOH      360             0.0000000000
     17730      1052  MEOH      LP1B           15.0974497752      -30.5993234435       30.9197899109  MEOH      360             0.0000000000
     17731      1053  MEOH      C1             -8.6810607849       -0.6774289917       26.6757506360  MEOH      361             0.0000000000
     17732      1053  MEOH      DC1            -8.6799390372       -0.6904308994       26.6840461286  MEOH      361             0.0000000000
     17733      1053  MEOH      O1             -7.7680889413       -1.1282315923       27.6713212444  MEOH      361             0.0000000000
     17734      1053  MEOH      DO1            -7.7727602120       -1.1349675260       27.6791381233  MEOH      361             0.0000000000
     17735      1053  MEOH      HO1            -6.9699238016       -0.5882278268       27.5607394017  MEOH      361             0.0000000000
     17736      1053  MEOH      HO2            -8.2607184589       -1.1085148471       28.5066818901  MEOH      361             0.0000000000
     17737      1053  MEOH      H1A            -9.6243947624       -1.2621994679       26.7256054068  MEOH      361             0.0000000000
     17738      1053  MEOH      H1B            -8.2308866736       -0.8157786850       25.6695083035  MEOH      361             0.0000000000
     17739      1053  MEOH      H1C            -8.9146514068        0.3991200615       26.8199676938  MEOH      361             0.0000000000
     17740      1053  MEOH      LP1A           -7.8158660140       -0.9484253041       27.9677787457  MEOH      361             0.0000000000
     17741      1053  MEOH      LP1B           -7.5745587529       -1.3914941910       27.5458665901  MEOH      361             0.0000000000
     17742      1054  MEOH      C1            -19.9386970200       12.0173172173       -0.0923115868  MEOH      362             0.0000000000
     17743      1054  MEOH      DC1           -19.9554495289       12.0274248837       -0.0991781332  MEOH      362             0.0000000000
     17744      1054  MEOH      O1            -20.5664638084       12.3264672726       -1.3396246221  MEOH      362             0.0000000000
     17745      1054  MEOH      DO1           -20.5820023683       12.3167687726       -1.3447788890  MEOH      362             0.0000000000
     17746      1054  MEOH      HO1           -21.4365633693       12.7118527296       -1.1517288953  MEOH      362             0.0000000000
     17747      1054  MEOH      HO2           -19.9135704793       12.8442960532       -1.8360958245  MEOH      362             0.0000000000
     17748      1054  MEOH      H1A           -18.9353035637       11.5852238446       -0.2943459660  MEOH      362             0.0000000000
     17749      1054  MEOH      H1B           -20.5369105449       11.2778572707        0.4818491629  MEOH      362             0.0000000000
     17750      1054  MEOH      H1C           -19.7859480750       12.9345889448        0.5156368795  MEOH      362             0.0000000000
     17751      1054  MEOH      LP1A          -20.4800524243       12.6504136944       -1.4400825160  MEOH      362             0.0000000000
     17752      1054  MEOH      LP1B          -20.7487764765       12.0502850906       -1.4535785313  MEOH      362             0.0000000000
     17753      1055  MEOH      C1             35.6921976261      -17.9615261006      -12.9698189418  MEOH      363             0.0000000000
     17754      1055  MEOH      DC1            35.6727942347      -17.9483566741      -12.9383114324  MEOH      363             0.0000000000
     17755      1055  MEOH      O1             34.7697812810      -17.5320391897      -13.9746526145  MEOH      363             0.0000000000
     17756      1055  MEOH      DO1            34.7604177802      -17.5254329120      -13.9456738264  MEOH      363             0.0000000000
     17757      1055  MEOH      HO1            35.2990746019      -17.1971974851      -14.7153479725  MEOH      363             0.0000000000
     17758      1055  MEOH      HO2            34.2054197631      -18.3008985849      -14.1514330108  MEOH      363             0.0000000000
     17759      1055  MEOH      H1A            35.1467654329      -18.4697469043      -12.1460857703  MEOH      363             0.0000000000
     17760      1055  MEOH      H1B            36.2559151485      -17.0917374546      -12.5698048591  MEOH      363             0.0000000000
     17761      1055  MEOH      H1C            36.4112278734      -18.6902882184      -13.4013537383  MEOH      363             0.0000000000
     17762      1055  MEOH      LP1A           34.6927219191      -17.7984612916      -14.1881499642  MEOH      363             0.0000000000
     17763      1055  MEOH      LP1B           34.6836402436      -17.1968137158      -13.9226564284  MEOH      363             0.0000000000
     17764      1056  MEOH      C1            -18.2243173617      -31.7198709867        3.8640362048  MEOH      364             0.0000000000
     17765      1056  MEOH      DC1           -18.2273761951      -31.7201139969        3.8622197915  MEOH      364             0.0000000000
     17766      1056  MEOH      O1            -18.8253912380      -30.4937556080        4.2856557124  MEOH      364             0.0000000000
     17767      1056  MEOH      DO1           -18.8186481131      -30.4900258258        4.2773620623  MEOH      364             0.0000000000
     17768      1056  MEOH      HO1           -19.4653894289      -30.2305733361        3.6059223769  MEOH      364             0.0000000000
     17769      1056  MEOH      HO2           -19.1489353476      -30.6615107994        5.1845869697  MEOH      364             0.0000000000
     17770      1056  MEOH      H1A           -17.4949232835      -32.0548224933        4.6322241814  MEOH      364             0.0000000000
     17771      1056  MEOH      H1B           -17.6878263167      -31.5762509168        2.9018139674  MEOH      364             0.0000000000
     17772      1056  MEOH      H1C           -19.0033575880      -32.5030453328        3.7454812793  MEOH      364             0.0000000000
     17773      1056  MEOH      LP1A          -19.1076519935      -30.5600169641        4.4817125883  MEOH      364             0.0000000000
     17774      1056  MEOH      LP1B          -18.6374137646      -30.2222213100        4.1697523282  MEOH      364             0.0000000000
     17775      1057  MEOH      C1             26.0954723761       20.4058279903      -35.2805398828  MEOH      365             0.0000000000
     17776      1057  MEOH      DC1            26.0807284350       20.3997633019      -35.2654245408  MEOH      365             0.0000000000
     17777      1057  MEOH      O1             27.0915521214       21.0946899237      -36.0367713576  MEOH      365             0.0000000000
     17778      1057  MEOH      DO1            27.0926174405       21.0838026016      -36.0167425011  MEOH      365             0.0000000000
     17779      1057  MEOH      HO1            27.0082416933       22.0556398569      -35.9341331653  MEOH      365             0.0000000000
     17780      1057  MEOH      HO2            27.9197896130       20.5900494869      -36.0206255189  MEOH      365             0.0000000000
     17781      1057  MEOH      H1A            25.9314377003       19.4060298007      -35.7364096072  MEOH      365             0.0000000000
     17782      1057  MEOH      H1B            25.1392690433       20.9704158055      -35.3157078380  MEOH      365             0.0000000000
     17783      1057  MEOH      H1C            26.4334991203       20.2811178339      -34.2295849368  MEOH      365             0.0000000000
     17784      1057  MEOH      LP1A           27.3802579067       21.1374264542      -35.8435808856  MEOH      365             0.0000000000
     17785      1057  MEOH      LP1B           26.9740381442       21.1574132681      -36.3604320553  MEOH      365             0.0000000000
     17786      1058  MEOH      C1            -29.3917823944       36.8621673371      -16.2090634614  MEOH      366             0.0000000000
     17787      1058  MEOH      DC1           -29.3865221125       36.8623128597      -16.1958055378  MEOH      366             0.0000000000
     17788      1058  MEOH      O1            -28.1755543984       36.6210381330      -15.5028640922  MEOH      366             0.0000000000
     17789      1058  MEOH      DO1           -28.1718886625       36.6218398101      -15.4931482539  MEOH      366             0.0000000000
     17790      1058  MEOH      HO1           -27.6232074343       36.1025292282      -16.1086374383  MEOH      366             0.0000000000
     17791      1058  MEOH      HO2           -27.8747921873       37.4883510053      -15.1894785874  MEOH      366             0.0000000000
     17792      1058  MEOH      H1A           -30.1231688635       37.3803043799      -15.5526117578  MEOH      366             0.0000000000
     17793      1058  MEOH      H1B           -29.8293171571       35.8940262854      -16.5340053578  MEOH      366             0.0000000000
     17794      1058  MEOH      H1C           -29.2117836807       37.4993444789      -17.1012107324  MEOH      366             0.0000000000
     17795      1058  MEOH      LP1A          -27.9492888099       36.8814953074      -15.5617363585  MEOH      366             0.0000000000
     17796      1058  MEOH      LP1B          -28.2018309393       36.3259534493      -15.3164919567  MEOH      366             0.0000000000
     17797      1059  MEOH      C1             -7.3193306307       24.6529250493       20.8415525861  MEOH      367             0.0000000000
     17798      1059  MEOH      DC1            -7.3228146748       24.6551283962       20.8449658735  MEOH      367             0.0000000000
     17799      1059  MEOH      O1             -6.0004330360       24.2624108145       20.4802870200  MEOH      367             0.0000000000
     17800      1059  MEOH      DO1            -6.0048978536       24.2652322521       20.4756551868  MEOH      367             0.0000000000
     17801      1059  MEOH      HO1            -5.3724011395       24.7105647916       21.0681934333  MEOH      367             0.0000000000
     17802      1059  MEOH      HO2            -6.0113918662       23.2933490761       20.4390650445  MEOH      367             0.0000000000
     17803      1059  MEOH      H1A            -8.0275394433       24.1332221878       20.1613539276  MEOH      367             0.0000000000
     17804      1059  MEOH      H1B            -7.4410669690       25.7516845448       20.7309685207  MEOH      367             0.0000000000
     17805      1059  MEOH      H1C            -7.5348296405       24.3523098440       21.8891745003  MEOH      367             0.0000000000
     17806      1059  MEOH      LP1A           -5.9085709735       23.9740603331       20.6561146668  MEOH      367             0.0000000000
     17807      1059  MEOH      LP1B           -5.8745159019       24.4783586455       20.2353147571  MEOH      367             0.0000000000
     17808      1060  MEOH      C1             -1.1213595801       23.7284935920       -2.7327821303  MEOH      368             0.0000000000
     17809      1060  MEOH      DC1            -1.1237836594       23.7192555178       -2.7136384711  MEOH      368             0.0000000000
     17810      1060  MEOH      O1             -1.5007774141       22.3680255811       -2.5064269302  MEOH      368             0.0000000000
     17811      1060  MEOH      DO1            -1.5034933596       22.3641096999       -2.5015134950  MEOH      368             0.0000000000
     17812      1060  MEOH      HO1            -0.6939688820       21.8301505639       -2.4809228429  MEOH      368             0.0000000000
     17813      1060  MEOH      HO2            -2.1256467931       22.3790600002       -1.7645937270  MEOH      368             0.0000000000
     17814      1060  MEOH      H1A            -2.0278297871       24.3206121360       -2.9818371359  MEOH      368             0.0000000000
     17815      1060  MEOH      H1B            -0.4186922273       23.8178459310       -3.5887002051  MEOH      368             0.0000000000
     17816      1060  MEOH      H1C            -0.6319573435       24.1520924400       -1.8298034665  MEOH      368             0.0000000000
     17817      1060  MEOH      LP1A           -1.5163432300       22.3036878289       -2.1627434144  MEOH      368             0.0000000000
     17818      1060  MEOH      LP1B           -1.5597592662       22.2077811837       -2.8119475910  MEOH      368             0.0000000000
     17819      1061  MEOH      C1            -30.1245196091      -16.9497950374       19.7510679446  MEOH      369             0.0000000000
     17820      1061  MEOH      DC1           -30.1350240835      -16.9518932222       19.7561574238  MEOH      369             0.0000000000
     17821      1061  MEOH      O1            -29.3705462816      -16.2104831184       18.7996096190  MEOH      369             0.0000000000
     17822      1061  MEOH      DO1           -29.3723709552      -16.2063089272       18.8006824119  MEOH      369             0.0000000000
     17823      1061  MEOH      HO1           -28.9135816688      -16.8640482642       18.2473995657  MEOH      369             0.0000000000
     17824      1061  MEOH      HO2           -29.9882789561      -15.5697175259       18.4139597790  MEOH      369             0.0000000000
     17825      1061  MEOH      H1A           -30.5941025787      -16.2556110518       20.4803973824  MEOH      369             0.0000000000
     17826      1061  MEOH      H1B           -29.4695971136      -17.6527041398       20.3090252188  MEOH      369             0.0000000000
     17827      1061  MEOH      H1C           -30.9150478854      -17.5251129448       19.2234361125  MEOH      369             0.0000000000
     17828      1061  MEOH      LP1A          -29.5649389409      -16.1478973507       18.5153658579  MEOH      369             0.0000000000
     17829      1061  MEOH      LP1B          -29.0530110686      -16.1387376063       18.9281552139  MEOH      369             0.0000000000
     17830      1062  MEOH      C1             -0.8057910631      -32.1540558241      -26.2332050031  MEOH      370             0.0000000000
     17831      1062  MEOH      DC1            -0.8035476140      -32.1528461740      -26.2414555975  MEOH      370             0.0000000000
     17832      1062  MEOH      O1             -2.1284122822      -32.5928484703      -25.9091589925  MEOH      370             0.0000000000
     17833      1062  MEOH      DO1            -2.1224036715      -32.5887464953      -25.9090442463  MEOH      370             0.0000000000
     17834      1062  MEOH      HO1            -2.7624467225      -32.0831022970      -26.4374195033  MEOH      370             0.0000000000
     17835      1062  MEOH      HO2            -2.1138568812      -33.5594701862      -25.9887240623  MEOH      370             0.0000000000
     17836      1062  MEOH      H1A            -0.0722701393      -32.6678817309      -25.5757470248  MEOH      370             0.0000000000
     17837      1062  MEOH      H1B            -0.7141762898      -31.0575487788      -26.0795819795  MEOH      370             0.0000000000
     17838      1062  MEOH      H1C            -0.5696027231      -32.4120932028      -27.2876967192  MEOH      370             0.0000000000
     17839      1062  MEOH      LP1A           -2.2202484679      -32.8594545625      -26.1164927973  MEOH      370             0.0000000000
     17840      1062  MEOH      LP1B           -2.2535677785      -32.4072259804      -25.6401229485  MEOH      370             0.0000000000
     17841      1063  MEOH      C1             25.0115188399       17.3320309749       32.0732669017  MEOH      371             0.0000000000
     17842      1063  MEOH      DC1            25.0327550401       17.3321484245       32.0681466829  MEOH      371             0.0000000000
     17843      1063  MEOH      O1             26.3447259461       17.4971909975       32.5523453935  MEOH      371             0.0000000000
     17844      1063  MEOH      DO1            26.3639940147       17.4867203533       32.5331306209  MEOH      371             0.0000000000
     17845      1063  MEOH      HO1            26.2944618343       18.1037078517       33.3076670639  MEOH      371             0.0000000000
     17846      1063  MEOH      HO2            26.7037208076       16.6033097168       32.6663583116  MEOH      371             0.0000000000
     17847      1063  MEOH      H1A            25.0318558718       16.7760748550       31.1115911774  MEOH      371             0.0000000000
     17848      1063  MEOH      H1B            24.5362912691       18.3240668796       31.9172395979  MEOH      371             0.0000000000
     17849      1063  MEOH      H1C            24.4055144889       16.7450827485       32.7961579773  MEOH      371             0.0000000000
     17850      1063  MEOH      LP1A           26.4174051296       17.2517803469       32.7910740028  MEOH      371             0.0000000000
     17851      1063  MEOH      LP1B           26.4996576460       17.7632316764       32.3858565785  MEOH      371             0.0000000000
     17852      1064  MEOH      C1             34.5730697880       -9.8447267613       26.4019145323  MEOH      372             0.0000000000
     17853      1064  MEOH      DC1            34.5613761615       -9.8561008825       26.4033193098  MEOH      372             0.0000000000
     17854      1064  MEOH      O1             35.9464629820       -9.8580983896       26.0295630536  MEOH      372             0.0000000000
     17855      1064  MEOH      DO1            35.9379464658       -9.8665548938       26.0252545295  MEOH      372             0.0000000000
     17856      1064  MEOH      HO1            35.9787296654       -9.8351627431       25.0603712159  MEOH      372             0.0000000000
     17857      1064  MEOH      HO2            36.3545186563       -9.1392358219       26.5371329261  MEOH      372             0.0000000000
     17858      1064  MEOH      H1A            34.4760650574       -9.8822701940       27.5080345863  MEOH      372             0.0000000000
     17859      1064  MEOH      H1B            34.0739617029      -10.7363807237       25.9658350317  MEOH      372             0.0000000000
     17860      1064  MEOH      H1C            34.0923353033       -8.9108423732       26.0398712930  MEOH      372             0.0000000000
     17861      1064  MEOH      LP1A           36.0688515574       -9.5306793534       26.0117357894  MEOH      372             0.0000000000
     17862      1064  MEOH      LP1B           36.0581363560      -10.1880841206       25.9958217600  MEOH      372             0.0000000000
     17863      1065  MEOH      C1              0.0711487810       32.9592961521       26.4000397077  MEOH      373             0.0000000000
     17864      1065  MEOH      DC1             0.0710858405       32.9510695348       26.4069648478  MEOH      373             0.0000000000
     17865      1065  MEOH      O1             -0.2201561479       31.5711570492       26.2113049490  MEOH      373             0.0000000000
     17866      1065  MEOH      DO1            -0.2191901321       31.5613461784       26.2209702445  MEOH      373             0.0000000000
     17867      1065  MEOH      HO1            -0.1007784939       31.3917714146       25.2655408294  MEOH      373             0.0000000000
     17868      1065  MEOH      HO2             0.3014498589       31.0949514435       26.8761774152  MEOH      373             0.0000000000
     17869      1065  MEOH      H1A            -0.1707785230       33.2568190368       27.4427632161  MEOH      373             0.0000000000
     17870      1065  MEOH      H1B            -0.5350652328       33.5809154496       25.7069199354  MEOH      373             0.0000000000
     17871      1065  MEOH      H1C             1.1464957019       33.1556413340       26.2015489794  MEOH      373             0.0000000000
     17872      1065  MEOH      LP1A            0.0703320256       31.3808678635       26.2549701171  MEOH      373             0.0000000000
     17873      1065  MEOH      LP1B           -0.5615479364       31.5281109278       26.1472840293  MEOH      373             0.0000000000
     17874      1066  MEOH      C1             10.0028463270      -14.1460641484      -17.5637722504  MEOH      374             0.0000000000
     17875      1066  MEOH      DC1            10.0078307351      -14.1366554486      -17.5600401177  MEOH      374             0.0000000000
     17876      1066  MEOH      O1              9.3686136053      -12.8748513640      -17.5860832987  MEOH      374             0.0000000000
     17877      1066  MEOH      DO1             9.3771115885      -12.8682363240      -17.5865278300  MEOH      374             0.0000000000
     17878      1066  MEOH      HO1             8.4167103804      -13.0328609743      -17.4870216256  MEOH      374             0.0000000000
     17879      1066  MEOH      HO2             9.8393973117      -12.3202868734      -16.9444284635  MEOH      374             0.0000000000
     17880      1066  MEOH      H1A            11.0750438528      -14.0421394378      -17.8356419292  MEOH      374             0.0000000000
     17881      1066  MEOH      H1B             9.5160758047      -14.8164650709      -18.3040006358  MEOH      374             0.0000000000
     17882      1066  MEOH      H1C             9.9227311219      -14.6012125391      -16.5534542329  MEOH      374             0.0000000000
     17883      1066  MEOH      LP1A            9.3508109377      -12.7442476360      -17.2618523143  MEOH      374             0.0000000000
     17884      1066  MEOH      LP1B            9.2897627433      -12.7861753666      -17.9153538699  MEOH      374             0.0000000000
     17885      1067  MEOH      C1             21.5413323076      -16.6850964652       25.3635656870  MEOH      375             0.0000000000
     17886      1067  MEOH      DC1            21.5579019796      -16.6904158572       25.3594264909  MEOH      375             0.0000000000
     17887      1067  MEOH      O1             22.8141215059      -16.3797827535       24.7895343836  MEOH      375             0.0000000000
     17888      1067  MEOH      DO1            22.8392179076      -16.3911096764       24.7919077835  MEOH      375             0.0000000000
     17889      1067  MEOH      HO1            23.1140859099      -15.5748877637       25.2401621819  MEOH      375             0.0000000000
     17890      1067  MEOH      HO2            23.3215094350      -17.2064950922       24.7874853626  MEOH      375             0.0000000000
     17891      1067  MEOH      H1A            20.9779068582      -17.3715896600       24.6960330226  MEOH      375             0.0000000000
     17892      1067  MEOH      H1B            20.9401530841      -15.7582271922       25.4811152193  MEOH      375             0.0000000000
     17893      1067  MEOH      H1C            21.6765014213      -17.1716517545       26.3531687697  MEOH      375             0.0000000000
     17894      1067  MEOH      LP1A           23.0678411446      -16.5423169019       24.9676045821  MEOH      375             0.0000000000
     17895      1067  MEOH      LP1B           22.7727479457      -16.1753102107       24.5085019874  MEOH      375             0.0000000000
     17896      1068  MEOH      C1             19.3054481637      -11.9924350164       19.2234506489  MEOH      376             0.0000000000
     17897      1068  MEOH      DC1            19.3081079675      -12.0056511835       19.2144224329  MEOH      376             0.0000000000
     17898      1068  MEOH      O1             20.4497402847      -12.7655438161       18.8492831153  MEOH      376             0.0000000000
     17899      1068  MEOH      DO1            20.4494356061      -12.7804653136       18.8440146285  MEOH      376             0.0000000000
     17900      1068  MEOH      HO1            21.1821641808      -12.4506295071       19.4018084231  MEOH      376             0.0000000000
     17901      1068  MEOH      HO2            20.1678582219      -13.6935097707       18.8672188258  MEOH      376             0.0000000000
     17902      1068  MEOH      H1A            18.4636338164      -12.1983845145       18.5282856259  MEOH      376             0.0000000000
     17903      1068  MEOH      H1B            19.5471300977      -10.9089572685       19.1788769749  MEOH      376             0.0000000000
     17904      1068  MEOH      H1C            18.9920612618      -12.2469293839       20.2585072985  MEOH      376             0.0000000000
     17905      1068  MEOH      LP1A           20.4659644618      -13.0567268911       19.0428010547  MEOH      376             0.0000000000
     17906      1068  MEOH      LP1B           20.6186378799      -12.6094143082       18.5854703424  MEOH      376             0.0000000000
     17907      1069  MEOH      C1             13.3748975422       -1.6152084865        1.3075132437  MEOH      377             0.0000000000
     17908      1069  MEOH      DC1            13.3722897852       -1.6323459680        1.3031317035  MEOH      377             0.0000000000
     17909      1069  MEOH      O1             13.4263932037       -2.8257757946        2.0615938128  MEOH      377             0.0000000000
     17910      1069  MEOH      DO1            13.4315549702       -2.8453462347        2.0554759229  MEOH      377             0.0000000000
     17911      1069  MEOH      HO1            12.9914392493       -3.5099759106        1.5290665753  MEOH      377             0.0000000000
     17912      1069  MEOH      HO2            14.3404945019       -2.9144330310        2.3737775918  MEOH      377             0.0000000000
     17913      1069  MEOH      H1A            13.6427816992       -0.7549425883        1.9575145244  MEOH      377             0.0000000000
     17914      1069  MEOH      H1B            12.3468193038       -1.4778536509        0.9093803697  MEOH      377             0.0000000000
     17915      1069  MEOH      H1C            14.0885753220       -1.6337911231        0.4562555200  MEOH      377             0.0000000000
     17916      1069  MEOH      LP1A           13.7217300228       -2.9992226511        1.9895358411  MEOH      377             0.0000000000
     17917      1069  MEOH      LP1B           13.1452039456       -2.8499165320        2.2685958077  MEOH      377             0.0000000000
     17918      1070  MEOH      C1             -2.9988392358       -4.3941894645        3.2956116202  MEOH      378             0.0000000000
     17919      1070  MEOH      DC1            -2.9794711458       -4.4009709473        3.2950377731  MEOH      378             0.0000000000
     17920      1070  MEOH      O1             -2.7802278307       -2.9851793841        3.2097088554  MEOH      378             0.0000000000
     17921      1070  MEOH      DO1            -2.7611050926       -2.9851032819        3.2111904750  MEOH      378             0.0000000000
     17922      1070  MEOH      HO1            -3.1597513617       -2.5913451263        4.0108058955  MEOH      378             0.0000000000
     17923      1070  MEOH      HO2            -1.8548111540       -2.8586720320        2.9479840680  MEOH      378             0.0000000000
     17924      1070  MEOH      H1A            -2.8259901890       -4.8613870898        2.3025503997  MEOH      378             0.0000000000
     17925      1070  MEOH      H1B            -4.0541670298       -4.5960742177        3.5781833704  MEOH      378             0.0000000000
     17926      1070  MEOH      H1C            -2.3294430953       -4.8462450153        4.0584193195  MEOH      378             0.0000000000
     17927      1070  MEOH      LP1A           -2.4709029707       -2.9031709955        3.3514577714  MEOH      378             0.0000000000
     17928      1070  MEOH      LP1B           -3.0476835941       -2.8324607291        3.0434427224  MEOH      378             0.0000000000
     17929      1071  MEOH      C1            -20.1202541458      -13.9300109515        6.0142828093  MEOH      379             0.0000000000
     17930      1071  MEOH      DC1           -20.1062109792      -13.9291259908        6.0257262552  MEOH      379             0.0000000000
     17931      1071  MEOH      O1            -19.7088729033      -12.9288103313        5.0874575406  MEOH      379             0.0000000000
     17932      1071  MEOH      DO1           -19.6904882367      -12.9348013787        5.0968989385  MEOH      379             0.0000000000
     17933      1071  MEOH      HO1           -19.8656570417      -13.2848410280        4.1988851593  MEOH      379             0.0000000000
     17934      1071  MEOH      HO2           -20.2052946701      -12.1370251495        5.3473453186  MEOH      379             0.0000000000
     17935      1071  MEOH      H1A           -20.0688562115      -13.4978737828        7.0365042732  MEOH      379             0.0000000000
     17936      1071  MEOH      H1B           -19.4579470611      -14.8199304290        5.9533430885  MEOH      379             0.0000000000
     17937      1071  MEOH      H1C           -21.1675671220      -14.2375523355        5.8072204347  MEOH      379             0.0000000000
     17938      1071  MEOH      LP1A          -19.9761407351      -12.7142333549        5.0165729352  MEOH      379             0.0000000000
     17939      1071  MEOH      LP1B          -19.3695406025      -12.9683161444        5.0113465669  MEOH      379             0.0000000000
     17940      1072  MEOH      C1             21.3895399062      -13.7010635294      -24.2942552155  MEOH      380             0.0000000000
     17941      1072  MEOH      DC1            21.3791773087      -13.6987184513      -24.2883487380  MEOH      380             0.0000000000
     17942      1072  MEOH      O1             20.1164073734      -13.5068702760      -23.6673451765  MEOH      380             0.0000000000
     17943      1072  MEOH      DO1            20.1117980619      -13.5157624323      -23.6523628365  MEOH      380             0.0000000000
     17944      1072  MEOH      HO1            19.6639458956      -12.8009137861      -24.1549967387  MEOH      380             0.0000000000
     17945      1072  MEOH      HO2            19.7178347253      -14.3871483324      -23.5827852121  MEOH      380             0.0000000000
     17946      1072  MEOH      H1A            21.9656191665      -14.4845598979      -23.7570521549  MEOH      380             0.0000000000
     17947      1072  MEOH      H1B            21.9744492911      -12.7566319534      -24.2784119127  MEOH      380             0.0000000000
     17948      1072  MEOH      H1C            21.2467357112      -14.0246483345      -25.3474507509  MEOH      380             0.0000000000
     17949      1072  MEOH      LP1A           19.8782305359      -13.7186965402      -23.8119184378  MEOH      380             0.0000000000
     17950      1072  MEOH      LP1B           20.1442525414      -13.2708465569      -23.4104065640  MEOH      380             0.0000000000
     17951      1073  MEOH      C1            -20.3289504141       31.6831469875      -30.3341981127  MEOH      381             0.0000000000
     17952      1073  MEOH      DC1           -20.3321940287       31.6562335747      -30.3186537294  MEOH      381             0.0000000000
     17953      1073  MEOH      O1            -19.9238811943       32.8046161680      -31.1164728999  MEOH      381             0.0000000000
     17954      1073  MEOH      DO1           -19.9264385926       32.7830890708      -31.1046873545  MEOH      381             0.0000000000
     17955      1073  MEOH      HO1           -19.0117935253       33.0488857886      -30.8943728372  MEOH      381             0.0000000000
     17956      1073  MEOH      HO2           -20.1720696856       32.6019936061      -32.0320309647  MEOH      381             0.0000000000
     17957      1073  MEOH      H1A           -21.4111953861       31.4977129533      -30.5035528897  MEOH      381             0.0000000000
     17958      1073  MEOH      H1B           -20.1601103311       31.8939795493      -29.2565322752  MEOH      381             0.0000000000
     17959      1073  MEOH      H1C           -19.7491177878       30.7883642093      -30.6464142348  MEOH      381             0.0000000000
     17960      1073  MEOH      LP1A          -19.7837842102       32.6957813918      -31.4181810810  MEOH      381             0.0000000000
     17961      1073  MEOH      LP1B          -20.0062737006       33.1019102194      -30.9511619145  MEOH      381             0.0000000000
     17962      1074  MEOH      C1            -13.9060745472      -36.5981168801      -13.5688731489  MEOH      382             0.0000000000
     17963      1074  MEOH      DC1           -13.8919246763      -36.5819919375      -13.5704424130  MEOH      382             0.0000000000
     17964      1074  MEOH      O1            -12.5515955182      -36.7018786186      -13.1332425047  MEOH      382             0.0000000000
     17965      1074  MEOH      DO1           -12.5399363060      -36.6978159360      -13.1276281240  MEOH      382             0.0000000000
     17966      1074  MEOH      HO1           -12.1766290999      -37.4813322796      -13.5722780108  MEOH      382             0.0000000000
     17967      1074  MEOH      HO2           -12.1532784056      -35.8198383093      -13.1984220426  MEOH      382             0.0000000000
     17968      1074  MEOH      H1A           -14.4334638103      -35.8144732058      -12.9839935395  MEOH      382             0.0000000000
     17969      1074  MEOH      H1B           -14.4351748254      -37.5662285404      -13.4379773555  MEOH      382             0.0000000000
     17970      1074  MEOH      H1C           -13.9178296010      -36.3286778955      -14.6466418876  MEOH      382             0.0000000000
     17971      1074  MEOH      LP1A          -12.3430776798      -36.5178363329      -13.3457248526  MEOH      382             0.0000000000
     17972      1074  MEOH      LP1B          -12.5341650359      -36.8939541850      -12.8411754660  MEOH      382             0.0000000000
     17973      1075  MEOH      C1            -33.6803752069       27.2240878811        9.5519117281  MEOH      383             0.0000000000
     17974      1075  MEOH      DC1           -33.6799987353       27.2292676749        9.5496999761  MEOH      383             0.0000000000
     17975      1075  MEOH      O1            -33.5390519251       25.9057670320       10.0877820458  MEOH      383             0.0000000000
     17976      1075  MEOH      DO1           -33.5264904040       25.9166397857       10.0927536241  MEOH      383             0.0000000000
     17977      1075  MEOH      HO1           -34.4242861021       25.5587753917       10.2797644759  MEOH      383             0.0000000000
     17978      1075  MEOH      HO2           -32.9699302970       25.4295108973        9.4631376128  MEOH      383             0.0000000000
     17979      1075  MEOH      H1A           -32.6741120855       27.6673854872        9.3930320140  MEOH      383             0.0000000000
     17980      1075  MEOH      H1B           -34.2498263681       27.8673783531       10.2563432320  MEOH      383             0.0000000000
     17981      1075  MEOH      H1C           -34.2076600807       27.1805295824        8.5749806466  MEOH      383             0.0000000000
     17982      1075  MEOH      LP1A          -33.5382833961       25.6706197266        9.8285424769  MEOH      383             0.0000000000
     17983      1075  MEOH      LP1B          -33.5047521849       25.9210366898       10.4357624553  MEOH      383             0.0000000000
     17984      1076  MEOH      C1            -33.6875016767      -21.7011338102       27.7028973114  MEOH      384             0.0000000000
     17985      1076  MEOH      DC1           -33.6876439872      -21.6896758536       27.7016483741  MEOH      384             0.0000000000
     17986      1076  MEOH      O1            -33.7780073305      -23.1225830260       27.5839798551  MEOH      384             0.0000000000
     17987      1076  MEOH      DO1           -33.7798673219      -23.1163033235       27.5803736368  MEOH      384             0.0000000000
     17988      1076  MEOH      HO1           -33.4900756856      -23.5128937765       28.4240113347  MEOH      384             0.0000000000
     17989      1076  MEOH      HO2           -34.6539343144      -23.3116806438       27.2126390281  MEOH      384             0.0000000000
     17990      1076  MEOH      H1A           -33.8662775521      -21.2394420780       26.7083115026  MEOH      384             0.0000000000
     17991      1076  MEOH      H1B           -32.6742779500      -21.4185442321       28.0604470423  MEOH      384             0.0000000000
     17992      1076  MEOH      H1C           -34.4559696731      -21.3268018380       28.4125828143  MEOH      384             0.0000000000
     17993      1076  MEOH      LP1A          -34.0969015396      -23.2306392555       27.6795326398  MEOH      384             0.0000000000
     17994      1076  MEOH      LP1B          -33.4780932678      -23.2514848282       27.4577424580  MEOH      384             0.0000000000
     17995      1077  MEOH      C1            -24.4870982826        0.4121493948        2.4345127849  MEOH      385             0.0000000000
     17996      1077  MEOH      DC1           -24.4992570560        0.4178450093        2.4365962202  MEOH      385             0.0000000000
     17997      1077  MEOH      O1            -23.3036147774       -0.2287013673        1.9777653723  MEOH      385             0.0000000000
     17998      1077  MEOH      DO1           -23.3116222361       -0.2203766624        1.9818112717  MEOH      385             0.0000000000
     17999      1077  MEOH      HO1           -22.6331631686       -0.1398634621        2.6731087888  MEOH      385             0.0000000000
     18000      1077  MEOH      HO2           -23.5822549987       -1.1138796846        1.6954198852  MEOH      385             0.0000000000
     18001      1077  MEOH      H1A           -25.2657654910        0.3746819951        1.6429355160  MEOH      385             0.0000000000
     18002      1077  MEOH      H1B           -24.2801326262        1.4799347393        2.6610534580  MEOH      385             0.0000000000
     18003      1077  MEOH      H1C           -24.8688630576       -0.1060045921        3.3401027047  MEOH      385             0.0000000000
     18004      1077  MEOH      LP1A          -23.3079830722       -0.5667647949        2.0682862919  MEOH      385             0.0000000000
     18005      1077  MEOH      LP1B          -23.1051638671       -0.0013462779        1.8004890358  MEOH      385             0.0000000000
     18006      1078  MEOH      C1            -20.7786485779      -12.9925212877        1.8225846423  MEOH      386             0.0000000000
     18007      1078  MEOH      DC1           -20.7725188991      -13.0008296013        1.8265593929  MEOH      386             0.0000000000
     18008      1078  MEOH      O1            -21.9243444315      -12.7748544710        2.6489405758  MEOH      386             0.0000000000
     18009      1078  MEOH      DO1           -21.9216206935      -12.7793744419        2.6454464799  MEOH      386             0.0000000000
     18010      1078  MEOH      HO1           -22.6281997201      -13.3808293595        2.3691510686  MEOH      386             0.0000000000
     18011      1078  MEOH      HO2           -21.6098956656      -12.7753111123        3.5665580152  MEOH      386             0.0000000000
     18012      1078  MEOH      H1A           -19.9647383250      -12.2989587150        2.1239848047  MEOH      386             0.0000000000
     18013      1078  MEOH      H1B           -21.0319638072      -12.8161379292        0.7553258604  MEOH      386             0.0000000000
     18014      1078  MEOH      H1C           -20.3975480100      -14.0281321783        1.9514001736  MEOH      386             0.0000000000
     18015      1078  MEOH      LP1A          -21.9073483646      -12.9783910313        2.9331658427  MEOH      386             0.0000000000
     18016      1078  MEOH      LP1B          -22.1275650816      -12.5266984008        2.5088694076  MEOH      386             0.0000000000
     18017      1079  MEOH      C1             19.1409025711       19.6762526498      -33.3894749151  MEOH      387             0.0000000000
     18018      1079  MEOH      DC1            19.1410754954       19.6690478389      -33.3893936678  MEOH      387             0.0000000000
     18019      1079  MEOH      O1             19.3849344703       20.9652974690      -33.9303459855  MEOH      387             0.0000000000
     18020      1079  MEOH      DO1            19.3947737253       20.9556763904      -33.9281235541  MEOH      387             0.0000000000
     18021      1079  MEOH      HO1            18.5734446320       21.4907758944      -33.8512468860  MEOH      387             0.0000000000
     18022      1079  MEOH      HO2            20.2121730191       21.2719074909      -33.5271504029  MEOH      387             0.0000000000
     18023      1079  MEOH      H1A            20.0284203691       19.0448290897      -33.6084211357  MEOH      387             0.0000000000
     18024      1079  MEOH      H1B            18.2437408088       19.2192036096      -33.8590789480  MEOH      387             0.0000000000
     18025      1079  MEOH      H1C            18.9960421341       19.7342916245      -32.2894894919  MEOH      387             0.0000000000
     18026      1079  MEOH      LP1A           19.5081935450       21.1782029350      -33.6813912446  MEOH      387             0.0000000000
     18027      1079  MEOH      LP1B           19.3136337523       20.9668006803      -34.2730031728  MEOH      387             0.0000000000
     18028      1080  MEOH      C1            -23.6085137831       -1.7193411427       34.4702855690  MEOH      388             0.0000000000
     18029      1080  MEOH      DC1           -23.6274094285       -1.7238698791       34.4554050803  MEOH      388             0.0000000000
     18030      1080  MEOH      O1            -22.5699414902       -2.6417995561       34.7989531024  MEOH      388             0.0000000000
     18031      1080  MEOH      DO1           -22.5852139332       -2.6385117023       34.7836253162  MEOH      388             0.0000000000
     18032      1080  MEOH      HO1           -22.6186836307       -2.8533010591       35.7443584747  MEOH      388             0.0000000000
     18033      1080  MEOH      HO2           -22.6047639864       -3.3462848069       34.1330792962  MEOH      388             0.0000000000
     18034      1080  MEOH      H1A           -23.4346393599       -1.3483231239       33.4376025031  MEOH      388             0.0000000000
     18035      1080  MEOH      H1B           -23.6175754709       -0.8369388009       35.1452707499  MEOH      388             0.0000000000
     18036      1080  MEOH      H1C           -24.5915582562       -2.2311497780       34.5477225449  MEOH      388             0.0000000000
     18037      1080  MEOH      LP1A          -22.6829162451       -2.9700695046       34.7545059917  MEOH      388             0.0000000000
     18038      1080  MEOH      LP1B          -22.2792561585       -2.4681789189       34.8875979685  MEOH      388             0.0000000000
     18039      1081  MEOH      C1            -13.7603088120       -6.0008126075      -28.4265078005  MEOH      389             0.0000000000
     18040      1081  MEOH      DC1           -13.7599214501       -6.0110096092      -28.4315758214  MEOH      389             0.0000000000
     18041      1081  MEOH      O1            -13.3923976873       -6.7084870574      -27.2467243230  MEOH      389             0.0000000000
     18042      1081  MEOH      DO1           -13.3863517705       -6.7113421178      -27.2453268791  MEOH      389             0.0000000000
     18043      1081  MEOH      HO1           -13.9495327199       -7.4999990575      -27.1834052059  MEOH      389             0.0000000000
     18044      1081  MEOH      HO2           -12.4245532677       -6.7721633865      -27.2577924984  MEOH      389             0.0000000000
     18045      1081  MEOH      H1A           -13.2621201999       -5.0079803600      -28.4061796151  MEOH      389             0.0000000000
     18046      1081  MEOH      H1B           -14.8589822806       -5.8422105862      -28.4721478018  MEOH      389             0.0000000000
     18047      1081  MEOH      H1C           -13.4180514526       -6.5571315395      -29.3252236323  MEOH      389             0.0000000000
     18048      1081  MEOH      LP1A          -13.1348293063       -6.9344615581      -27.3180969658  MEOH      389             0.0000000000
     18049      1081  MEOH      LP1B          -13.5802048589       -6.5934953282      -26.9746850455  MEOH      389             0.0000000000
     18050      1082  MEOH      C1            -19.5626009313        8.9116523018       25.0108948958  MEOH      390             0.0000000000
     18051      1082  MEOH      DC1           -19.5601516147        8.9264758123       25.0232298280  MEOH      390             0.0000000000
     18052      1082  MEOH      O1            -20.3982878852        8.1128104065       24.1855024734  MEOH      390             0.0000000000
     18053      1082  MEOH      DO1           -20.3995842306        8.1344995549       24.2004982521  MEOH      390             0.0000000000
     18054      1082  MEOH      HO1           -19.9889639262        7.9947182655       23.3140622042  MEOH      390             0.0000000000
     18055      1082  MEOH      HO2           -20.5846546954        7.3167954237       24.7075441965  MEOH      390             0.0000000000
     18056      1082  MEOH      H1A           -20.0024103722        8.9447645006       26.0305969298  MEOH      390             0.0000000000
     18057      1082  MEOH      H1B           -19.5009311874        9.9415382847       24.5987629915  MEOH      390             0.0000000000
     18058      1082  MEOH      H1C           -18.5450428587        8.4710518506       25.0799442401  MEOH      390             0.0000000000
     18059      1082  MEOH      LP1A          -20.3204603213        7.7742723916       24.2283380050  MEOH      390             0.0000000000
     18060      1082  MEOH      LP1B          -20.6245803643        8.3158450392       24.0120993251  MEOH      390             0.0000000000
     18061      1083  MEOH      C1            -28.1993569597       32.9291070600       -5.5386087769  MEOH      391             0.0000000000
     18062      1083  MEOH      DC1           -28.1999229160       32.9398115103       -5.5321346210  MEOH      391             0.0000000000
     18063      1083  MEOH      O1            -28.9756561948       33.7252504994       -4.6441739740  MEOH      391             0.0000000000
     18064      1083  MEOH      DO1           -28.9782749036       33.7265847495       -4.6384278518  MEOH      391             0.0000000000
     18065      1083  MEOH      HO1           -29.7866875845       33.9691256085       -5.1170936460  MEOH      391             0.0000000000
     18066      1083  MEOH      HO2           -29.0207073514       33.2267522673       -3.8132889595  MEOH      391             0.0000000000
     18067      1083  MEOH      H1A           -27.2271321552       32.6946057172       -5.0547606083  MEOH      391             0.0000000000
     18068      1083  MEOH      H1B           -28.0056552429       33.4720591710       -6.4883475042  MEOH      391             0.0000000000
     18069      1083  MEOH      H1C           -28.7224450814       31.9764101953       -5.7689747957  MEOH      391             0.0000000000
     18070      1083  MEOH      LP1A          -29.1842896551       33.5203371420       -4.4518653803  MEOH      391             0.0000000000
     18071      1083  MEOH      LP1B          -28.8891213754       34.0626526123       -4.6784017286  MEOH      391             0.0000000000
     18072      1084  MEOH      C1              1.8322962477       12.5337893601      -36.0326090761  MEOH      392             0.0000000000
     18073      1084  MEOH      DC1             1.8297225831       12.5519989038      -36.0216179992  MEOH      392             0.0000000000
     18074      1084  MEOH      O1              1.5936484684       12.9234310715      -34.7143997696  MEOH      392             0.0000000000
     18075      1084  MEOH      DO1             1.5876665449       12.9292154410      -34.7165481374  MEOH      392             0.0000000000
     18076      1084  MEOH      HO1             1.9914854469       13.8040442941      -34.6298652061  MEOH      392             0.0000000000
     18077      1084  MEOH      HO2             0.6489665616       12.7517443277      -34.5765601635  MEOH      392             0.0000000000
     18078      1084  MEOH      H1A             2.4461428812       11.6188134425      -35.8900174138  MEOH      392             0.0000000000
     18079      1084  MEOH      H1B             2.4415161600       13.2430025455      -36.6327663528  MEOH      392             0.0000000000
     18080      1084  MEOH      H1C             0.8879093387       12.2399132187      -36.5386635985  MEOH      392             0.0000000000
     18081      1084  MEOH      LP1A            1.2861672824       13.0891707636      -34.6923617404  MEOH      392             0.0000000000
     18082      1084  MEOH      LP1B            1.8547514014       12.8146286086      -34.5082753353  MEOH      392             0.0000000000
     18083      1085  MEOH      C1             11.6503406729       -3.2999314144        6.8524638429  MEOH      393             0.0000000000
     18084      1085  MEOH      DC1            11.6497763642       -3.2962555373        6.8390408203  MEOH      393             0.0000000000
     18085      1085  MEOH      O1             12.1412106774       -2.0521267096        6.3571164735  MEOH      393             0.0000000000
     18086      1085  MEOH      DO1            12.1340373466       -2.0486558142        6.3428751565  MEOH      393             0.0000000000
     18087      1085  MEOH      HO1            12.1443487486       -1.4516042513        7.1188663863  MEOH      393             0.0000000000
     18088      1085  MEOH      HO2            12.9787667535       -2.2590291089        5.9137303917  MEOH      393             0.0000000000
     18089      1085  MEOH      H1A            11.6184361523       -4.0403646411        6.0247792785  MEOH      393             0.0000000000
     18090      1085  MEOH      H1B            10.6234822736       -3.1951763243        7.2634494877  MEOH      393             0.0000000000
     18091      1085  MEOH      H1C            12.3113116849       -3.6740892736        7.6632931827  MEOH      393             0.0000000000
     18092      1085  MEOH      LP1A           12.4901871603       -2.0423870476        6.3820273818  MEOH      393             0.0000000000
     18093      1085  MEOH      LP1B           11.8755124738       -1.8574527460        6.2387673608  MEOH      393             0.0000000000
     18094      1086  MEOH      C1            -28.1163145178        8.7270396987      -34.2264938794  MEOH      394             0.0000000000
     18095      1086  MEOH      DC1           -28.1239736260        8.7314187333      -34.2258515543  MEOH      394             0.0000000000
     18096      1086  MEOH      O1            -28.2265097300        7.4166233217      -34.7816615393  MEOH      394             0.0000000000
     18097      1086  MEOH      DO1           -28.2390335210        7.4248852679      -34.7895669743  MEOH      394             0.0000000000
     18098      1086  MEOH      HO1           -27.8968690524        6.7955723090      -34.1134305431  MEOH      394             0.0000000000
     18099      1086  MEOH      HO2           -29.1295084930        7.3470409373      -35.1290108243  MEOH      394             0.0000000000
     18100      1086  MEOH      H1A           -28.3487217254        9.4877178506      -35.0021720595  MEOH      394             0.0000000000
     18101      1086  MEOH      H1B           -27.0858762982        8.9057238254      -33.8515404682  MEOH      394             0.0000000000
     18102      1086  MEOH      H1C           -28.8348966062        8.8297435000      -33.3854155763  MEOH      394             0.0000000000
     18103      1086  MEOH      LP1A          -28.5411473635        7.2817820643      -34.7087163893  MEOH      394             0.0000000000
     18104      1086  MEOH      LP1B          -27.9347078817        7.3361278973      -34.9573663143  MEOH      394             0.0000000000
     18105      1087  MEOH      C1             -5.5004589045      -29.6515748659      -12.2537809446  MEOH      395             0.0000000000
     18106      1087  MEOH      DC1            -5.5108205835      -29.6510749667      -12.2589105733  MEOH      395             0.0000000000
     18107      1087  MEOH      O1             -6.8086653505      -29.3083206342      -12.7042490399  MEOH      395             0.0000000000
     18108      1087  MEOH      DO1            -6.8129552853      -29.3030971517      -12.7068055129  MEOH      395             0.0000000000
     18109      1087  MEOH      HO1            -7.4294773997      -29.9863216634      -12.3947219737  MEOH      395             0.0000000000
     18110      1087  MEOH      HO2            -6.9368525570      -28.3726028906      -12.4831148170  MEOH      395             0.0000000000
     18111      1087  MEOH      H1A            -4.7558338823      -28.9552576897      -12.6953655537  MEOH      395             0.0000000000
     18112      1087  MEOH      H1B            -5.2401414108      -30.6829253491      -12.5745175706  MEOH      395             0.0000000000
     18113      1087  MEOH      H1C            -5.4493593015      -29.5784431469      -11.1463688335  MEOH      395             0.0000000000
     18114      1087  MEOH      LP1A           -6.9663755271      -29.1030715364      -12.4686640063  MEOH      395             0.0000000000
     18115      1087  MEOH      LP1B           -6.8664502607      -29.4465294123      -13.0205704553  MEOH      395             0.0000000000
     18116      1088  MEOH      C1             36.7096394587       36.0796953982      -26.6011118215  MEOH      396             0.0000000000
     18117      1088  MEOH      DC1            36.6991572334       36.0760152262      -26.6017948868  MEOH      396             0.0000000000
     18118      1088  MEOH      O1             35.5804315029       35.2882799085      -26.9597040908  MEOH      396             0.0000000000
     18119      1088  MEOH      DO1            35.5731574510       35.2858189486      -26.9589800667  MEOH      396             0.0000000000
     18120      1088  MEOH      HO1            34.9971767191       35.2471366624      -26.1857395628  MEOH      396             0.0000000000
     18121      1088  MEOH      HO2            35.2491476350       35.6641235689      -27.7903017932  MEOH      396             0.0000000000
     18122      1088  MEOH      H1A            37.4661978372       36.0345969345      -27.4134581457  MEOH      396             0.0000000000
     18123      1088  MEOH      H1B            37.1618691439       35.6923515726      -25.6631490967  MEOH      396             0.0000000000
     18124      1088  MEOH      H1C            36.4025207822       37.1389541853      -26.4670598148  MEOH      396             0.0000000000
     18125      1088  MEOH      LP1A           35.3313245532       35.4911384162      -27.0986074871  MEOH      396             0.0000000000
     18126      1088  MEOH      LP1B           35.6441734249       34.9509466734      -26.8915626505  MEOH      396             0.0000000000
     18127      1089  MEOH      C1             -6.3207720297       26.1078649252      -26.5752263270  MEOH      397             0.0000000000
     18128      1089  MEOH      DC1            -6.3257510194       26.0970451046      -26.5663643674  MEOH      397             0.0000000000
     18129      1089  MEOH      O1             -5.9260046037       25.0005524648      -25.7568060010  MEOH      397             0.0000000000
     18130      1089  MEOH      DO1            -5.9285732895       24.9960893206      -25.7545168798  MEOH      397             0.0000000000
     18131      1089  MEOH      HO1            -6.0889060824       25.2351108181      -24.8297971079  MEOH      397             0.0000000000
     18132      1089  MEOH      HO2            -6.3207336399       24.2083312879      -26.1536366887  MEOH      397             0.0000000000
     18133      1089  MEOH      H1A            -6.0464961509       25.9231965874      -27.6358824206  MEOH      397             0.0000000000
     18134      1089  MEOH      H1B            -5.7735315859       27.0298473293      -26.2840264921  MEOH      397             0.0000000000
     18135      1089  MEOH      H1C            -7.4178805587       26.2689586124      -26.5065044274  MEOH      397             0.0000000000
     18136      1089  MEOH      LP1A           -6.1950914080       24.7806822977      -25.7149801550  MEOH      397             0.0000000000
     18137      1089  MEOH      LP1B           -5.5878641817       25.0294998945      -25.6712308797  MEOH      397             0.0000000000
     18138      1090  MEOH      C1             -7.6992762874       21.9567774394        9.6206689483  MEOH      398             0.0000000000
     18139      1090  MEOH      DC1            -7.7009587205       21.9638038071        9.6260877798  MEOH      398             0.0000000000
     18140      1090  MEOH      O1             -6.5959313332       21.0520028274        9.6624315402  MEOH      398             0.0000000000
     18141      1090  MEOH      DO1            -6.5983484509       21.0539182488        9.6653421683  MEOH      398             0.0000000000
     18142      1090  MEOH      HO1            -6.1134373386       21.1500229368        8.8266734393  MEOH      398             0.0000000000
     18143      1090  MEOH      HO2            -6.1485647017       21.2218977599       10.5061725014  MEOH      398             0.0000000000
     18144      1090  MEOH      H1A            -8.3401088053       21.7937488074       10.5134602737  MEOH      398             0.0000000000
     18145      1090  MEOH      H1B            -8.3020112304       21.7827966642        8.7037380465  MEOH      398             0.0000000000
     18146      1090  MEOH      H1C            -7.3358398821       23.0066082041        9.6111639597  MEOH      398             0.0000000000
     18147      1090  MEOH      LP1A           -6.3180824986       21.2086178942        9.8065556046  MEOH      398             0.0000000000
     18148      1090  MEOH      LP1B           -6.6919658550       20.7401795702        9.5357681008  MEOH      398             0.0000000000
     18149      1091  MEOH      C1            -19.0420641523       -7.3330798113        7.2583259486  MEOH      399             0.0000000000
     18150      1091  MEOH      DC1           -19.0485465078       -7.3598291047        7.2361621661  MEOH      399             0.0000000000
     18151      1091  MEOH      O1            -19.2967282699       -7.0686477633        8.6280614927  MEOH      399             0.0000000000
     18152      1091  MEOH      DO1           -19.3350849340       -7.1081782321        8.6014033655  MEOH      399             0.0000000000
     18153      1091  MEOH      HO1           -19.5210062149       -6.1369932839        8.7784587498  MEOH      399             0.0000000000
     18154      1091  MEOH      HO2           -19.7204182072       -7.8431006158        9.0300684781  MEOH      399             0.0000000000
     18155      1091  MEOH      H1A           -18.2375483987       -8.0981585988        7.2167344642  MEOH      399             0.0000000000
     18156      1091  MEOH      H1B           -18.7132304503       -6.4015522203        6.7499503554  MEOH      399             0.0000000000
     18157      1091  MEOH      H1C           -19.9461627035       -7.7423063063        6.7588657529  MEOH      399             0.0000000000
     18158      1091  MEOH      LP1A          -19.6354061749       -7.1210408551        8.6991406077  MEOH      399             0.0000000000
     18159      1091  MEOH      LP1B          -18.9990097128       -6.9826274679        8.7907396091  MEOH      399             0.0000000000
     18160      1092  MEOH      C1              0.2190735486      -27.0022735384      -18.4283778949  MEOH      400             0.0000000000
     18161      1092  MEOH      DC1             0.2299513431      -27.0086339058      -18.4301722824  MEOH      400             0.0000000000
     18162      1092  MEOH      O1              0.6686605295      -25.8771899999      -19.1797927991  MEOH      400             0.0000000000
     18163      1092  MEOH      DO1             0.6655695987      -25.8887795797      -19.1795364150  MEOH      400             0.0000000000
     18164      1092  MEOH      HO1             0.6856560489      -25.1044432170      -18.5937266238  MEOH      400             0.0000000000
     18165      1092  MEOH      HO2             1.4864336782      -26.1692632405      -19.6120430741  MEOH      400             0.0000000000
     18166      1092  MEOH      H1A            -0.0588577038      -27.8388090645      -19.1046053224  MEOH      400             0.0000000000
     18167      1092  MEOH      H1B            -0.6662241344      -26.7424944801      -17.8094402132  MEOH      400             0.0000000000
     18168      1092  MEOH      H1C             1.0600886183      -27.3453997563      -17.7886286854  MEOH      400             0.0000000000
     18169      1092  MEOH      LP1A            1.0176713906      -25.8552679383      -19.1652723984  MEOH      400             0.0000000000
     18170      1092  MEOH      LP1B            0.3961414142      -25.7168008708      -19.3298216597  MEOH      400             0.0000000000
     18171      1093  MEOH      C1            -17.0545891657        6.3560335178      -10.4165524273  MEOH      401             0.0000000000
     18172      1093  MEOH      DC1           -17.0547426097        6.3631815574      -10.4267601794  MEOH      401             0.0000000000
     18173      1093  MEOH      O1            -17.3882347932        6.3774592172       -9.0403531423  MEOH      401             0.0000000000
     18174      1093  MEOH      DO1           -17.3842927324        6.3873950983       -9.0493573628  MEOH      401             0.0000000000
     18175      1093  MEOH      HO1           -18.3073265290        6.0811905217       -8.9487275933  MEOH      401             0.0000000000
     18176      1093  MEOH      HO2           -16.6794280826        5.8925685274       -8.5893830031  MEOH      401             0.0000000000
     18177      1093  MEOH      H1A           -16.0062933468        6.6973423021      -10.5540485762  MEOH      401             0.0000000000
     18178      1093  MEOH      H1B           -17.7386606106        7.0323315776      -10.9724194912  MEOH      401             0.0000000000
     18179      1093  MEOH      H1C           -17.1580127127        5.3204494835      -10.8053843698  MEOH      401             0.0000000000
     18180      1093  MEOH      LP1A          -17.3079911209        6.0703323935       -8.8929283572  MEOH      401             0.0000000000
     18181      1093  MEOH      LP1B          -17.5143219052        6.6919532882       -8.9526290323  MEOH      401             0.0000000000
     18182      1094  MEOH      C1             33.2848002154       -7.1522613021       23.2317859218  MEOH      402             0.0000000000
     18183      1094  MEOH      DC1            33.2955229170       -7.1775202922       23.2351389483  MEOH      402             0.0000000000
     18184      1094  MEOH      O1             31.9171870916       -7.4262821181       22.9118312317  MEOH      402             0.0000000000
     18185      1094  MEOH      DO1            31.9244080200       -7.4528073703       22.9071144322  MEOH      402             0.0000000000
     18186      1094  MEOH      HO1            31.5198140333       -7.8841890250       23.6690075105  MEOH      402             0.0000000000
     18187      1094  MEOH      HO2            31.5493073046       -6.5618569578       22.6703077220  MEOH      402             0.0000000000
     18188      1094  MEOH      H1A            33.7251549141       -6.5067527711       22.4420217306  MEOH      402             0.0000000000
     18189      1094  MEOH      H1B            33.8584928444       -8.1007611611       23.3062559528  MEOH      402             0.0000000000
     18190      1094  MEOH      H1C            33.3454865606       -6.6013316551       24.1946538730  MEOH      402             0.0000000000
     18191      1094  MEOH      LP1A           31.7153555069       -7.1572605683       23.0087405561  MEOH      402             0.0000000000
     18192      1094  MEOH      LP1B           31.8916113613       -7.7361631773       22.7511464125  MEOH      402             0.0000000000
     18193      1095  MEOH      C1            -26.0540933883        3.9911371628       31.2900162898  MEOH      403             0.0000000000
     18194      1095  MEOH      DC1           -26.0656370359        3.9921597999       31.2876988057  MEOH      403             0.0000000000
     18195      1095  MEOH      O1            -25.1895639435        3.7234740674       30.1878538051  MEOH      403             0.0000000000
     18196      1095  MEOH      DO1           -25.2040941718        3.7270716668       30.1806982324  MEOH      403             0.0000000000
     18197      1095  MEOH      HO1           -24.2774557430        3.8251371143       30.5018972026  MEOH      403             0.0000000000
     18198      1095  MEOH      HO2           -25.4820327466        2.8795899054       29.8094076120  MEOH      403             0.0000000000
     18199      1095  MEOH      H1A           -27.1071770746        3.9952998789       30.9360128689  MEOH      403             0.0000000000
     18200      1095  MEOH      H1B           -25.8186516706        4.9870118847       31.7225919893  MEOH      403             0.0000000000
     18201      1095  MEOH      H1C           -25.9289061992        3.2063424156       32.0663837119  MEOH      403             0.0000000000
     18202      1095  MEOH      LP1A          -25.1145839433        3.3818514570       30.1747392456  MEOH      403             0.0000000000
     18203      1095  MEOH      LP1B          -25.1285352455        4.0182226269       30.0092514965  MEOH      403             0.0000000000
     18204      1096  MEOH      C1             29.6274544488       -1.3968620346       -3.8441850892  MEOH      404             0.0000000000
     18205      1096  MEOH      DC1            29.6190950564       -1.4013795826       -3.8364959182  MEOH      404             0.0000000000
     18206      1096  MEOH      O1             29.9262874660       -2.7523165764       -4.1899803124  MEOH      404             0.0000000000
     18207      1096  MEOH      DO1            29.9098742999       -2.7564916079       -4.1801010121  MEOH      404             0.0000000000
     18208      1096  MEOH      HO1            29.9294666999       -2.8055754777       -5.1585118720  MEOH      404             0.0000000000
     18209      1096  MEOH      HO2            30.7515551396       -2.9562966252       -3.7228342883  MEOH      404             0.0000000000
     18210      1096  MEOH      H1A            29.7506054618       -1.2496024121       -2.7498956249  MEOH      404             0.0000000000
     18211      1096  MEOH      H1B            28.5810448139       -1.1531497571       -4.1269432964  MEOH      404             0.0000000000
     18212      1096  MEOH      H1C            30.3231932914       -0.7073600499       -4.3684516974  MEOH      404             0.0000000000
     18213      1096  MEOH      LP1A           30.2726080042       -2.7955970219       -4.2162269857  MEOH      404             0.0000000000
     18214      1096  MEOH      LP1B           29.6306817875       -2.9385889862       -4.2104710955  MEOH      404             0.0000000000
     18215      1097  MEOH      C1            -32.5190589370      -12.9799211403      -11.4774291029  MEOH      405             0.0000000000
     18216      1097  MEOH      DC1           -32.5317259509      -12.9757923145      -11.4781606133  MEOH      405             0.0000000000
     18217      1097  MEOH      O1            -33.4306693334      -13.4049887662      -12.4928532521  MEOH      405             0.0000000000
     18218      1097  MEOH      DO1           -33.4442767949      -13.3984545883      -12.4917039190  MEOH      405             0.0000000000
     18219      1097  MEOH      HO1           -34.1553342158      -13.8816444308      -12.0586180789  MEOH      405             0.0000000000
     18220      1097  MEOH      HO2           -33.5885261976      -12.6371669696      -13.0641945693  MEOH      405             0.0000000000
     18221      1097  MEOH      H1A           -31.5709872816      -12.6383074957      -11.9451696874  MEOH      405             0.0000000000
     18222      1097  MEOH      H1B           -32.2892238084      -13.8216126608      -10.7896412010  MEOH      405             0.0000000000
     18223      1097  MEOH      H1C           -32.9594850660      -12.1385737293      -10.9008180033  MEOH      405             0.0000000000
     18224      1097  MEOH      LP1A          -33.6701853666      -13.1563518473      -12.5504010794  MEOH      405             0.0000000000
     18225      1097  MEOH      LP1B          -33.3371929839      -13.7199972594      -12.6134012562  MEOH      405             0.0000000000
     18226      1098  MEOH      C1              4.7948475851        8.8143120611      -18.8164892030  MEOH      406             0.0000000000
     18227      1098  MEOH      DC1             4.7986500747        8.8139914168      -18.8413038192  MEOH      406             0.0000000000
     18228      1098  MEOH      O1              4.3772152650        9.5342736801      -17.6602902422  MEOH      406             0.0000000000
     18229      1098  MEOH      DO1             4.3711204067        9.5239080631      -17.6794073579  MEOH      406             0.0000000000
     18230      1098  MEOH      HO1             5.0192288425       10.2353375946      -17.4673447714  MEOH      406             0.0000000000
     18231      1098  MEOH      HO2             3.4324276648        9.7192277827      -17.7789004041  MEOH      406             0.0000000000
     18232      1098  MEOH      H1A             4.2214783661        7.8640708797      -18.8675816526  MEOH      406             0.0000000000
     18233      1098  MEOH      H1B             5.8763944580        8.5693142006      -18.7490102371  MEOH      406             0.0000000000
     18234      1098  MEOH      H1C             4.5991827777        9.4178855750      -19.7284844313  MEOH      406             0.0000000000
     18235      1098  MEOH      LP1A            4.1680167229        9.7990365195      -17.7532235994  MEOH      406             0.0000000000
     18236      1098  MEOH      LP1B            4.5069847749        9.3837516763      -17.3721878287  MEOH      406             0.0000000000
     18237      1099  MEOH      C1             -1.6589497705       31.0776388406      -10.4228507567  MEOH      407             0.0000000000
     18238      1099  MEOH      DC1            -1.6551755827       31.0930375577      -10.4356858052  MEOH      407             0.0000000000
     18239      1099  MEOH      O1             -0.3001884319       30.7453121044      -10.1195425809  MEOH      407             0.0000000000
     18240      1099  MEOH      DO1            -0.2862223159       30.7691456894      -10.1339866346  MEOH      407             0.0000000000
     18241      1099  MEOH      HO1            -0.2919997311       30.5697131996       -9.1656044436  MEOH      407             0.0000000000
     18242      1099  MEOH      HO2            -0.0899694490       29.9982546953      -10.7014473915  MEOH      407             0.0000000000
     18243      1099  MEOH      H1A            -1.8090845117       31.1219318008      -11.5227683423  MEOH      407             0.0000000000
     18244      1099  MEOH      H1B            -1.9199971594       32.0551768440       -9.9639447605  MEOH      407             0.0000000000
     18245      1099  MEOH      H1C            -2.3390051362       30.3031059247      -10.0081888924  MEOH      407             0.0000000000
     18246      1099  MEOH      LP1A           -0.2498111642       30.4010457078      -10.1575265122  MEOH      407             0.0000000000
     18247      1099  MEOH      LP1B           -0.1204726506       31.0354289537      -10.0418608474  MEOH      407             0.0000000000
     18248      1100  MEOH      C1             12.5423794901      -20.4839667675      -23.3918101829  MEOH      408             0.0000000000
     18249      1100  MEOH      DC1            12.5502142740      -20.4927411447      -23.3890200447  MEOH      408             0.0000000000
     18250      1100  MEOH      O1             13.7199186160      -21.1837314400      -23.7962624954  MEOH      408             0.0000000000
     18251      1100  MEOH      DO1            13.7225658872      -21.2013669524      -23.7967573830  MEOH      408             0.0000000000
     18252      1100  MEOH      HO1            14.3258625041      -21.1672592567      -23.0389906339  MEOH      408             0.0000000000
     18253      1100  MEOH      HO2            13.4209540087      -22.0103547339      -24.2064016101  MEOH      408             0.0000000000
     18254      1100  MEOH      H1A            11.9067582162      -20.2621091618      -24.2756007687  MEOH      408             0.0000000000
     18255      1100  MEOH      H1B            12.8160865607      -19.5246489520      -22.9028165547  MEOH      408             0.0000000000
     18256      1100  MEOH      H1C            11.9584217881      -21.1062072521      -22.6803812102  MEOH      408             0.0000000000
     18257      1100  MEOH      LP1A           13.6866821370      -21.5248873211      -23.7254952627  MEOH      408             0.0000000000
     18258      1100  MEOH      LP1B           13.9458833764      -20.9617566377      -23.9451487413  MEOH      408             0.0000000000
     18259      1101  MEOH      C1            -27.4173947971      -33.8066697737      -25.7256531354  MEOH      409             0.0000000000
     18260      1101  MEOH      DC1           -27.4173057077      -33.7978984099      -25.7283138661  MEOH      409             0.0000000000
     18261      1101  MEOH      O1            -27.6428733709      -32.4029844333      -25.7393451740  MEOH      409             0.0000000000
     18262      1101  MEOH      DO1           -27.6410785661      -32.4015820090      -25.7410911398  MEOH      409             0.0000000000
     18263      1101  MEOH      HO1           -28.4846959990      -32.2515020549      -25.2818653890  MEOH      409             0.0000000000
     18264      1101  MEOH      HO2           -26.8337572512      -32.0305406237      -25.3552661279  MEOH      409             0.0000000000
     18265      1101  MEOH      H1A           -26.5175829286      -34.0734422228      -26.3202051194  MEOH      409             0.0000000000
     18266      1101  MEOH      H1B           -28.2977616413      -34.3641127115      -26.1110523985  MEOH      409             0.0000000000
     18267      1101  MEOH      H1C           -27.2077277251      -34.0746000629      -24.6680265097  MEOH      409             0.0000000000
     18268      1101  MEOH      LP1A          -27.4965541663      -32.2554860055      -25.4576806498  MEOH      409             0.0000000000
     18269      1101  MEOH      LP1B          -27.8173065666      -32.3125823735      -26.0290010523  MEOH      409             0.0000000000
     18270      1102  MEOH      C1            -26.8917852679      -23.0517772800       -4.8049940759  MEOH      410             0.0000000000
     18271      1102  MEOH      DC1           -26.8932256071      -23.0492129055       -4.8034029535  MEOH      410             0.0000000000
     18272      1102  MEOH      O1            -25.8145669887      -22.7136380743       -3.9303229856  MEOH      410             0.0000000000
     18273      1102  MEOH      DO1           -25.8101477363      -22.7105477292       -3.9270808984  MEOH      410             0.0000000000
     18274      1102  MEOH      HO1           -26.0525659578      -23.0588547184       -3.0556333496  MEOH      410             0.0000000000
     18275      1102  MEOH      HO2           -25.0079453421      -23.0181864210       -4.3747460099  MEOH      410             0.0000000000
     18276      1102  MEOH      H1A           -26.7080343626      -22.6133671458       -5.8091619698  MEOH      410             0.0000000000
     18277      1102  MEOH      H1B           -27.8496749557      -22.6566874410       -4.4041544989  MEOH      410             0.0000000000
     18278      1102  MEOH      H1C           -26.9630614167      -24.1563894865       -4.9002441900  MEOH      410             0.0000000000
     18279      1102  MEOH      LP1A          -25.5736098463      -22.9674680382       -3.9334860510  MEOH      410             0.0000000000
     18280      1102  MEOH      LP1B          -25.8694568774      -22.3980636886       -3.7892559549  MEOH      410             0.0000000000
     18281      1103  MEOH      C1             14.6927288553       26.9017365869      -10.4633468530  MEOH      411             0.0000000000
     18282      1103  MEOH      DC1            14.6984823988       26.9058233846      -10.4579928004  MEOH      411             0.0000000000
     18283      1103  MEOH      O1             15.6515410528       27.9265883103      -10.7419910057  MEOH      411             0.0000000000
     18284      1103  MEOH      DO1            15.6579174494       27.9337107869      -10.7227229166  MEOH      411             0.0000000000
     18285      1103  MEOH      HO1            15.1704824327       28.7102205613      -11.0508649284  MEOH      411             0.0000000000
     18286      1103  MEOH      HO2            16.2730935084       27.9454108123       -9.9975326399  MEOH      411             0.0000000000
     18287      1103  MEOH      H1A            15.2065417936       25.9193443736      -10.3910778859  MEOH      411             0.0000000000
     18288      1103  MEOH      H1B            13.9469891513       26.8428931397      -11.2847668089  MEOH      411             0.0000000000
     18289      1103  MEOH      H1C            14.1677412217       27.1126074049       -9.5071865719  MEOH      411             0.0000000000
     18290      1103  MEOH      LP1A           15.7115394185       28.1159360209      -10.4538111303  MEOH      411             0.0000000000
     18291      1103  MEOH      LP1B           15.7604541183       27.9016396807      -11.0736768662  MEOH      411             0.0000000000
     18292      1104  MEOH      C1            -35.0800033434       -5.1336534216       18.9388137050  MEOH      412             0.0000000000
     18293      1104  MEOH      DC1           -35.0955066107       -5.1426377961       18.9430042479  MEOH      412             0.0000000000
     18294      1104  MEOH      O1            -36.2963023165       -4.6761912947       19.5133102430  MEOH      412             0.0000000000
     18295      1104  MEOH      DO1           -36.3101250807       -4.6693015887       19.4977477246  MEOH      412             0.0000000000
     18296      1104  MEOH      HO1           -36.0956939212       -3.8603125835       19.9980763739  MEOH      412             0.0000000000
     18297      1104  MEOH      HO2           -36.9756672650       -4.7329751772       18.8232820859  MEOH      412             0.0000000000
     18298      1104  MEOH      H1A           -35.1604309521       -6.2126199739       18.6864576452  MEOH      412             0.0000000000
     18299      1104  MEOH      H1B           -34.2374868645       -4.9823480348       19.6470464797  MEOH      412             0.0000000000
     18300      1104  MEOH      H1C           -34.8858516144       -4.5493884819       18.0140107064  MEOH      412             0.0000000000
     18301      1104  MEOH      LP1A          -36.4632300040       -4.4660636740       19.2886292911  MEOH      412             0.0000000000
     18302      1104  MEOH      LP1B          -36.3398566546       -4.8181977404       19.8302285117  MEOH      412             0.0000000000
     18303      1105  MEOH      C1              8.0321501489      -24.1207129504       30.9057128099  MEOH      413             0.0000000000
     18304      1105  MEOH      DC1             8.0268570985      -24.1348511792       30.9246138473  MEOH      413             0.0000000000
     18305      1105  MEOH      O1              7.1829036711      -24.7463929605       31.8617556846  MEOH      413             0.0000000000
     18306      1105  MEOH      DO1             7.1821310557      -24.7651123630       31.8790882509  MEOH      413             0.0000000000
     18307      1105  MEOH      HO1             6.2821327685      -24.6569699989       31.5131652159  MEOH      413             0.0000000000
     18308      1105  MEOH      HO2             7.5852772342      -25.6076121744       32.0548799510  MEOH      413             0.0000000000
     18309      1105  MEOH      H1A             9.0554495545      -24.0014500836       31.3215922344  MEOH      413             0.0000000000
     18310      1105  MEOH      H1B             7.6443640667      -23.1131491043       30.6434952466  MEOH      413             0.0000000000
     18311      1105  MEOH      H1C             8.0934545893      -24.7247046444       29.9752522786  MEOH      413             0.0000000000
     18312      1105  MEOH      LP1A            7.1488831051      -25.0866443148       31.7871124197  MEOH      413             0.0000000000
     18313      1105  MEOH      LP1B            7.0832469031      -24.5138899889       32.1036459424  MEOH      413             0.0000000000
     18314      1106  MEOH      C1            -18.4137950411       12.0627074933      -16.5969269257  MEOH      414             0.0000000000
     18315      1106  MEOH      DC1           -18.4166163832       12.0724093599      -16.6001070292  MEOH      414             0.0000000000
     18316      1106  MEOH      O1            -18.5466923561       13.1574001878      -17.5046166434  MEOH      414             0.0000000000
     18317      1106  MEOH      DO1           -18.5476902174       13.1638328061      -17.5085140048  MEOH      414             0.0000000000
     18318      1106  MEOH      HO1           -18.6995447274       12.7786419674      -18.3844338765  MEOH      414             0.0000000000
     18319      1106  MEOH      HO2           -19.1869162622       13.7631032362      -17.0994781890  MEOH      414             0.0000000000
     18320      1106  MEOH      H1A           -18.0527089942       12.4287079859      -15.6120505340  MEOH      414             0.0000000000
     18321      1106  MEOH      H1B           -17.6646146344       11.3439015570      -16.9923605409  MEOH      414             0.0000000000
     18322      1106  MEOH      H1C           -19.3859260928       11.5434653788      -16.4566776952  MEOH      414             0.0000000000
     18323      1106  MEOH      LP1A          -18.8813787054       13.2582499477      -17.5223472256  MEOH      414             0.0000000000
     18324      1106  MEOH      LP1B          -18.2327177519       13.2474215089      -17.6303787588  MEOH      414             0.0000000000
     18325      1107  MEOH      C1             11.1825480509       -5.1402058931       -9.9316268348  MEOH      415             0.0000000000
     18326      1107  MEOH      DC1            11.1977218629       -5.1459480914       -9.9353188940  MEOH      415             0.0000000000
     18327      1107  MEOH      O1              9.8475885760       -5.4686511621       -9.5529759807  MEOH      415             0.0000000000
     18328      1107  MEOH      DO1             9.8500045365       -5.4914846855       -9.5533776324  MEOH      415             0.0000000000
     18329      1107  MEOH      HO1             9.9043647876       -5.9174524988       -8.6949236386  MEOH      415             0.0000000000
     18330      1107  MEOH      HO2             9.3544350919       -4.6351685282       -9.6078060954  MEOH      415             0.0000000000
     18331      1107  MEOH      H1A            11.1732661844       -4.4235119205      -10.7804993795  MEOH      415             0.0000000000
     18332      1107  MEOH      H1B            11.7469645955       -6.0547649206      -10.2132946342  MEOH      415             0.0000000000
     18333      1107  MEOH      H1C            11.6871865197       -4.6645831250       -9.0636153139  MEOH      415             0.0000000000
     18334      1107  MEOH      LP1A            9.7057974579       -5.2042554090       -9.3727256975  MEOH      415             0.0000000000
     18335      1107  MEOH      LP1B            9.7613274489       -5.7834386853       -9.6793398727  MEOH      415             0.0000000000
     18336      1108  MEOH      C1              5.6484740340      -12.6624785444      -26.2350984059  MEOH      416             0.0000000000
     18337      1108  MEOH      DC1             5.6434285821      -12.6632923426      -26.2295599966  MEOH      416             0.0000000000
     18338      1108  MEOH      O1              4.2569199541      -12.4143711640      -26.3168884982  MEOH      416             0.0000000000
     18339      1108  MEOH      DO1             4.2523968308      -12.4239112472      -26.3173984107  MEOH      416             0.0000000000
     18340      1108  MEOH      HO1             4.1383298276      -11.6951065260      -26.9568062764  MEOH      416             0.0000000000
     18341      1108  MEOH      HO2             3.8438704808      -13.2768292807      -26.4795419016  MEOH      416             0.0000000000
     18342      1108  MEOH      H1A             5.8378896844      -13.4637798006      -25.4892036352  MEOH      416             0.0000000000
     18343      1108  MEOH      H1B             6.1732691737      -11.7352381611      -25.9202391788  MEOH      416             0.0000000000
     18344      1108  MEOH      H1C             6.0404353801      -12.9912721455      -27.2212941638  MEOH      416             0.0000000000
     18345      1108  MEOH      LP1A            4.1133133416      -12.6177746655      -26.5628644247  MEOH      416             0.0000000000
     18346      1108  MEOH      LP1B            4.1632928917      -12.1772983984      -26.0770333815  MEOH      416             0.0000000000
     18347      1109  MEOH      C1             -2.5201713339      -24.0963756522        5.6189535582  MEOH      417             0.0000000000
     18348      1109  MEOH      DC1            -2.5130872341      -24.0961745181        5.6198751850  MEOH      417             0.0000000000
     18349      1109  MEOH      O1             -2.6743086044      -24.1776704045        4.2004247313  MEOH      417             0.0000000000
     18350      1109  MEOH      DO1            -2.6753324954      -24.1720093674        4.1990523374  MEOH      417             0.0000000000
     18351      1109  MEOH      HO1            -3.4683314931      -24.7077042863        4.0286931455  MEOH      417             0.0000000000
     18352      1109  MEOH      HO2            -2.5937565052      -23.2708768732        3.8655563231  MEOH      417             0.0000000000
     18353      1109  MEOH      H1A            -1.5476985289      -23.6177002823        5.8628542235  MEOH      417             0.0000000000
     18354      1109  MEOH      H1B            -2.5435658566      -25.1170292574        6.0571771477  MEOH      417             0.0000000000
     18355      1109  MEOH      H1C            -3.3365728971      -23.4849635101        6.0593904795  MEOH      417             0.0000000000
     18356      1109  MEOH      LP1A           -2.8656859288      -23.9082421997        4.0851721298  MEOH      417             0.0000000000
     18357      1109  MEOH      LP1B           -2.4992990741      -24.4543532485        4.0766577401  MEOH      417             0.0000000000
     18358      1110  MEOH      C1             33.8015314093      -35.2262560313      -25.5563498965  MEOH      418             0.0000000000
     18359      1110  MEOH      DC1            33.7743623312      -35.2288972569      -25.5521742758  MEOH      418             0.0000000000
     18360      1110  MEOH      O1             32.8008586882      -34.2516941306      -25.2848066686  MEOH      418             0.0000000000
     18361      1110  MEOH      DO1            32.7767104549      -34.2642488291      -25.2841311700  MEOH      418             0.0000000000
     18362      1110  MEOH      HO1            32.8629900712      -33.5490760119      -25.9506651161  MEOH      418             0.0000000000
     18363      1110  MEOH      HO2            31.9847987891      -34.7233498991      -25.0557060860  MEOH      418             0.0000000000
     18364      1110  MEOH      H1A            34.0094659758      -35.7952646905      -24.6250532930  MEOH      418             0.0000000000
     18365      1110  MEOH      H1B            34.7225566662      -34.7308482653      -25.9313227248  MEOH      418             0.0000000000
     18366      1110  MEOH      H1C            33.4876059760      -35.9554814268      -26.3335256455  MEOH      418             0.0000000000
     18367      1110  MEOH      LP1A           32.5037637122      -34.3360833481      -25.4494670316  MEOH      418             0.0000000000
     18368      1110  MEOH      LP1B           32.9260878959      -34.0094567278      -25.0654013673  MEOH      418             0.0000000000
     18369      1111  MEOH      C1            -25.7534669428       13.8648358362      -12.2271562559  MEOH      419             0.0000000000
     18370      1111  MEOH      DC1           -25.7544112992       13.8621631284      -12.2172391119  MEOH      419             0.0000000000
     18371      1111  MEOH      O1            -25.5455836221       12.6757945578      -11.4759585540  MEOH      419             0.0000000000
     18372      1111  MEOH      DO1           -25.5377266513       12.6811471818      -11.4610795830  MEOH      419             0.0000000000
     18373      1111  MEOH      HO1           -26.1488065734       12.6789181416      -10.7163452878  MEOH      419             0.0000000000
     18374      1111  MEOH      HO2           -25.5708376800       11.9517691470      -12.1209774985  MEOH      419             0.0000000000
     18375      1111  MEOH      H1A           -25.1375331585       13.8387050151      -13.1514201542  MEOH      419             0.0000000000
     18376      1111  MEOH      H1B           -25.4599193381       14.7570855868      -11.6338256666  MEOH      419             0.0000000000
     18377      1111  MEOH      H1C           -26.8245315710       13.9341427424      -12.5141024456  MEOH      419             0.0000000000
     18378      1111  MEOH      LP1A          -25.7519550072       12.4202385371      -11.5967971725  MEOH      419             0.0000000000
     18379      1111  MEOH      LP1B          -25.2961026081       12.7278377249      -11.2360612167  MEOH      419             0.0000000000
     18380      1112  MEOH      C1              8.5928839505      -35.8568320352        7.3313964726  MEOH      420             0.0000000000
     18381      1112  MEOH      DC1             8.5988008511      -35.8348334847        7.3264821683  MEOH      420             0.0000000000
     18382      1112  MEOH      O1              8.9662632144      -37.1934647753        6.9875375302  MEOH      420             0.0000000000
     18383      1112  MEOH      DO1             8.9730150907      -37.1786253955        6.9693341596  MEOH      420             0.0000000000
     18384      1112  MEOH      HO1             8.5402338725      -37.4485459200        6.1542713006  MEOH      420             0.0000000000
     18385      1112  MEOH      HO2             9.9184189706      -37.2789737724        7.1518166479  MEOH      420             0.0000000000
     18386      1112  MEOH      H1A             8.8998302334      -35.6496686816        8.3788640499  MEOH      420             0.0000000000
     18387      1112  MEOH      H1B             7.4895658438      -35.7427254060        7.2682313504  MEOH      420             0.0000000000
     18388      1112  MEOH      H1C             9.0966666818      -35.1378204945        6.6505540779  MEOH      420             0.0000000000
     18389      1112  MEOH      LP1A            9.2592180543      -37.1904159147        6.7960481931  MEOH      420             0.0000000000
     18390      1112  MEOH      LP1B            8.7422631261      -37.4209758076        7.1309344988  MEOH      420             0.0000000000
     18391      1113  MEOH      C1             26.9740901654       -4.9942350347       14.8759915451  MEOH      421             0.0000000000
     18392      1113  MEOH      DC1            26.9761241700       -5.0001839932       14.8667108153  MEOH      421             0.0000000000
     18393      1113  MEOH      O1             27.3071722318       -3.7144604708       14.3419714001  MEOH      421             0.0000000000
     18394      1113  MEOH      DO1            27.3100646762       -3.7168105883       14.3268278239  MEOH      421             0.0000000000
     18395      1113  MEOH      HO1            26.7750103397       -3.0656245437       14.8285057373  MEOH      421             0.0000000000
     18396      1113  MEOH      HO2            28.2754991128       -3.6639106009       14.3681966203  MEOH      421             0.0000000000
     18397      1113  MEOH      H1A            27.5472059239       -5.7774242976       14.3351829774  MEOH      421             0.0000000000
     18398      1113  MEOH      H1B            25.8870000062       -5.1918482889       14.7597805846  MEOH      421             0.0000000000
     18399      1113  MEOH      H1C            27.2358699190       -5.0274357984       15.9551996215  MEOH      421             0.0000000000
     18400      1113  MEOH      LP1A           27.5791024683       -3.5792373872       14.5159503188  MEOH      421             0.0000000000
     18401      1113  MEOH      LP1B           27.0985216438       -3.6397989748       14.0710644177  MEOH      421             0.0000000000
     18402      1114  MEOH      C1            -26.9555477213      -20.7038852160       21.5790383924  MEOH      422             0.0000000000
     18403      1114  MEOH      DC1           -26.9674673470      -20.6932375249       21.5711367452  MEOH      422             0.0000000000
     18404      1114  MEOH      O1            -26.0381993542      -21.6778634447       22.0702410060  MEOH      422             0.0000000000
     18405      1114  MEOH      DO1           -26.0451770938      -21.6618210891       22.0621084911  MEOH      422             0.0000000000
     18406      1114  MEOH      HO1           -26.0552875518      -22.4660930004       21.5051727260  MEOH      422             0.0000000000
     18407      1114  MEOH      HO2           -25.2090875489      -21.2104548154       22.2573313278  MEOH      422             0.0000000000
     18408      1114  MEOH      H1A           -27.0723338203      -19.9022419811       22.3393344747  MEOH      422             0.0000000000
     18409      1114  MEOH      H1B           -27.9469768431      -21.1639380787       21.3796877952  MEOH      422             0.0000000000
     18410      1114  MEOH      H1C           -26.5446495051      -20.2548913559       20.6495825465  MEOH      422             0.0000000000
     18411      1114  MEOH      LP1A          -25.7222749263      -21.6269900281       21.9284536605  MEOH      422             0.0000000000
     18412      1114  MEOH      LP1B          -26.1971160701      -21.8852764751       22.3031042968  MEOH      422             0.0000000000
     18413      1115  MEOH      C1             30.5715503797       -8.8443730499       13.2094486549  MEOH      423             0.0000000000
     18414      1115  MEOH      DC1            30.5701512161       -8.8446789738       13.2046815146  MEOH      423             0.0000000000
     18415      1115  MEOH      O1             31.1990339705       -7.9220541768       12.3208450424  MEOH      423             0.0000000000
     18416      1115  MEOH      DO1            31.2019573277       -7.9257576818       12.3127876426  MEOH      423             0.0000000000
     18417      1115  MEOH      HO1            30.9768991378       -8.2043667401       11.4198146690  MEOH      423             0.0000000000
     18418      1115  MEOH      HO2            30.9197967230       -7.0453458790       12.6279429426  MEOH      423             0.0000000000
     18419      1115  MEOH      H1A            30.8203305204       -8.5699785206       14.2568917725  MEOH      423             0.0000000000
     18420      1115  MEOH      H1B            30.9337685473       -9.8793775150       13.0308856231  MEOH      423             0.0000000000
     18421      1115  MEOH      H1C            29.4704891980       -8.8185104736       13.0634472771  MEOH      423             0.0000000000
     18422      1115  MEOH      LP1A           30.9851369999       -7.6523270624       12.2576361050  MEOH      423             0.0000000000
     18423      1115  MEOH      LP1B           31.5225423668       -8.0312133363       12.2438606581  MEOH      423             0.0000000000
     18424      1116  MEOH      C1             10.4319316893       -1.2424525595      -21.8655111073  MEOH      424             0.0000000000
     18425      1116  MEOH      DC1            10.4267718176       -1.2466092753      -21.8742121142  MEOH      424             0.0000000000
     18426      1116  MEOH      O1             10.9655960511       -2.5415371104      -22.1156371922  MEOH      424             0.0000000000
     18427      1116  MEOH      DO1            10.9616900224       -2.5497928957      -22.1146650422  MEOH      424             0.0000000000
     18428      1116  MEOH      HO1            10.7238439416       -3.0909981746      -21.3536998874  MEOH      424             0.0000000000
     18429      1116  MEOH      HO2            10.6832412030       -2.7753497387      -23.0136947603  MEOH      424             0.0000000000
     18430      1116  MEOH      H1A            10.7966421114       -0.5466340839      -22.6510962129  MEOH      424             0.0000000000
     18431      1116  MEOH      H1B            10.7700282086       -0.8623949064      -20.8778026868  MEOH      424             0.0000000000
     18432      1116  MEOH      H1C             9.3214348107       -1.2747237553      -21.8742435150  MEOH      424             0.0000000000
     18433      1116  MEOH      LP1A           10.7330374183       -2.7345296199      -22.2921885264  MEOH      424             0.0000000000
     18434      1116  MEOH      LP1B           11.2919807295       -2.5628929524      -21.9910700629  MEOH      424             0.0000000000
     18435      1117  MEOH      C1              7.8780688074       15.4562237335       29.9716631633  MEOH      425             0.0000000000
     18436      1117  MEOH      DC1             7.8818451612       15.4621931319       29.9763564774  MEOH      425             0.0000000000
     18437      1117  MEOH      O1              8.2446728106       14.9572716473       28.6848336061  MEOH      425             0.0000000000
     18438      1117  MEOH      DO1             8.2462872762       14.9632850924       28.6897015289  MEOH      425             0.0000000000
     18439      1117  MEOH      HO1             9.0742709798       14.4633555467       28.7781811458  MEOH      425             0.0000000000
     18440      1117  MEOH      HO2             7.4564682910       14.5018373025       28.3498512273  MEOH      425             0.0000000000
     18441      1117  MEOH      H1A             6.9468692172       16.0545933111       29.8760484545  MEOH      425             0.0000000000
     18442      1117  MEOH      H1B             8.6860771937       16.0994563630       30.3811692462  MEOH      425             0.0000000000
     18443      1117  MEOH      H1C             7.6827375587       14.6124962850       30.6675731412  MEOH      425             0.0000000000
     18444      1117  MEOH      LP1A            8.1003415714       14.6426826214       28.6328505493  MEOH      425             0.0000000000
     18445      1117  MEOH      LP1B            8.4411001142       15.1930484998       28.5165315259  MEOH      425             0.0000000000
     18446      1118  MEOH      C1             -8.7393803911      -22.8473031896      -14.6999881509  MEOH      426             0.0000000000
     18447      1118  MEOH      DC1            -8.7365445132      -22.8534729686      -14.6996814784  MEOH      426             0.0000000000
     18448      1118  MEOH      O1             -7.5021221086      -22.2692883851      -14.2793617748  MEOH      426             0.0000000000
     18449      1118  MEOH      DO1            -7.4941147815      -22.2750882467      -14.2772256831  MEOH      426             0.0000000000
     18450      1118  MEOH      HO1            -7.1859471104      -22.7940140808      -13.5273003977  MEOH      426             0.0000000000
     18451      1118  MEOH      HO2            -6.9654893662      -22.1776010131      -15.0821810113  MEOH      426             0.0000000000
     18452      1118  MEOH      H1A            -9.1600265175      -22.2763040737      -15.5551710822  MEOH      426             0.0000000000
     18453      1118  MEOH      H1B            -9.4703767608      -22.8097289501      -13.8641930291  MEOH      426             0.0000000000
     18454      1118  MEOH      H1C            -8.5784731935      -23.8969104561      -15.0267211618  MEOH      426             0.0000000000
     18455      1118  MEOH      LP1A           -7.2363485906      -22.4147177597      -14.4546179706  MEOH      426             0.0000000000
     18456      1118  MEOH      LP1B           -7.5614767759      -22.0191055832      -14.0419052754  MEOH      426             0.0000000000
     18457      1119  MEOH      C1            -26.5637239762      -25.5291337571       36.7596817498  MEOH      427             0.0000000000
     18458      1119  MEOH      DC1           -26.5588830937      -25.5325492355       36.7727527838  MEOH      427             0.0000000000
     18459      1119  MEOH      O1            -27.5404985254      -25.1348263956       35.7940787706  MEOH      427             0.0000000000
     18460      1119  MEOH      DO1           -27.5287426080      -25.1309886286       35.8093566240  MEOH      427             0.0000000000
     18461      1119  MEOH      HO1           -27.1367244252      -24.5105016793       35.1711139838  MEOH      427             0.0000000000
     18462      1119  MEOH      HO2           -27.9074760462      -25.9620061041       35.4447920272  MEOH      427             0.0000000000
     18463      1119  MEOH      H1A           -27.0235601504      -26.2469403194       37.4721601240  MEOH      427             0.0000000000
     18464      1119  MEOH      H1B           -26.2061559878      -24.6411564160       37.3235632767  MEOH      427             0.0000000000
     18465      1119  MEOH      H1C           -25.7033432985      -26.0205340144       36.2570965565  MEOH      427             0.0000000000
     18466      1119  MEOH      LP1A          -27.5365337371      -25.3557976732       35.5226824277  MEOH      427             0.0000000000
     18467      1119  MEOH      LP1B          -27.7158875729      -24.8545141955       35.9088121680  MEOH      427             0.0000000000
     18468      1120  MEOH      C1             -5.0314700904       17.2865375224      -16.0113640332  MEOH      428             0.0000000000
     18469      1120  MEOH      DC1            -5.0368996158       17.2948119752      -16.0137349082  MEOH      428             0.0000000000
     18470      1120  MEOH      O1             -4.7694190962       17.6489558740      -14.6531376966  MEOH      428             0.0000000000
     18471      1120  MEOH      DO1            -4.7730631792       17.6586291044      -14.6598375717  MEOH      428             0.0000000000
     18472      1120  MEOH      HO1            -5.5832961536       17.6059118448      -14.1271611310  MEOH      428             0.0000000000
     18473      1120  MEOH      HO2            -3.9924911823       17.1311897445      -14.3900763887  MEOH      428             0.0000000000
     18474      1120  MEOH      H1A            -4.1046072276       17.3963681294      -16.6140110885  MEOH      428             0.0000000000
     18475      1120  MEOH      H1B            -5.8276713780       17.9407612022      -16.4265457861  MEOH      428             0.0000000000
     18476      1120  MEOH      H1C            -5.3733766795       16.2322980169      -16.0888233726  MEOH      428             0.0000000000
     18477      1120  MEOH      LP1A           -4.6789063403       17.3654549124      -14.4689241092  MEOH      428             0.0000000000
     18478      1120  MEOH      LP1B           -4.8049886728       17.9947663806      -14.6125187511  MEOH      428             0.0000000000
     18479      1121  MEOH      C1            -32.8491907804      -26.7738607450      -10.8978389270  MEOH      429             0.0000000000
     18480      1121  MEOH      DC1           -32.8461928225      -26.7655668974      -10.8993669640  MEOH      429             0.0000000000
     18481      1121  MEOH      O1            -31.9814678490      -27.9070718568      -10.8241646509  MEOH      429             0.0000000000
     18482      1121  MEOH      DO1           -31.9729160265      -27.9104184661      -10.8177089581  MEOH      429             0.0000000000
     18483      1121  MEOH      HO1           -31.7628079855      -28.1560305661      -11.7358155847  MEOH      429             0.0000000000
     18484      1121  MEOH      HO2           -31.3039135334      -27.6907319238      -10.1646063264  MEOH      429             0.0000000000
     18485      1121  MEOH      H1A           -33.2838703763      -26.5593816956       -9.8981522826  MEOH      429             0.0000000000
     18486      1121  MEOH      H1B           -33.6781757705      -26.9837909080      -11.6070879754  MEOH      429             0.0000000000
     18487      1121  MEOH      H1C           -32.2790034059      -25.8834244377      -11.2389115617  MEOH      429             0.0000000000
     18488      1121  MEOH      LP1A          -31.6483085821      -27.8016502787      -10.8043860331  MEOH      429             0.0000000000
     18489      1121  MEOH      LP1B          -32.1698451626      -28.2020257350      -10.8201400461  MEOH      429             0.0000000000
     18490      1122  MEOH      C1              1.5216695795        3.2447742738       19.7025680647  MEOH      430             0.0000000000
     18491      1122  MEOH      DC1             1.5082175849        3.2350410729       19.6938728215  MEOH      430             0.0000000000
     18492      1122  MEOH      O1              0.6441654450        4.1844129170       20.3303150264  MEOH      430             0.0000000000
     18493      1122  MEOH      DO1             0.6214167283        4.1794030533       20.3104139130  MEOH      430             0.0000000000
     18494      1122  MEOH      HO1             0.1692231480        3.7122267816       21.0320058900  MEOH      430             0.0000000000
     18495      1122  MEOH      HO2             1.2207160136        4.9154456161       20.6024926090  MEOH      430             0.0000000000
     18496      1122  MEOH      H1A             2.1345789103        3.7671073574       18.9371718914  MEOH      430             0.0000000000
     18497      1122  MEOH      H1B             0.9559989004        2.4449654321       19.1785036588  MEOH      430             0.0000000000
     18498      1122  MEOH      H1C             2.1958828843        2.7911066191       20.4601583758  MEOH      430             0.0000000000
     18499      1122  MEOH      LP1A            0.8098350817        4.3459703013       20.5929036459  MEOH      430             0.0000000000
     18500      1122  MEOH      LP1B            0.3353477424        4.1882993649       20.1656440754  MEOH      430             0.0000000000
     18501      1123  MEOH      C1              2.7041464202      -31.4561045942      -10.7658882163  MEOH      431             0.0000000000
     18502      1123  MEOH      DC1             2.7208635637      -31.4593252876      -10.7807903002  MEOH      431             0.0000000000
     18503      1123  MEOH      O1              4.0996069097      -31.2020196657      -10.9492045419  MEOH      431             0.0000000000
     18504      1123  MEOH      DO1             4.1105233289      -31.2070961760      -10.9716898651  MEOH      431             0.0000000000
     18505      1123  MEOH      HO1             4.1628881574      -30.2725992372      -11.2195250012  MEOH      431             0.0000000000
     18506      1123  MEOH      HO2             4.5145804290      -31.4687240884      -10.1140005362  MEOH      431             0.0000000000
     18507      1123  MEOH      H1A             2.5468434541      -32.4459890283      -10.2866121120  MEOH      431             0.0000000000
     18508      1123  MEOH      H1B             2.1673776513      -31.4239379224      -11.7380844904  MEOH      431             0.0000000000
     18509      1123  MEOH      H1C             2.2722528571      -30.6717886690      -10.1081363785  MEOH      431             0.0000000000
     18510      1123  MEOH      LP1A            4.2426174814      -31.0961800302      -10.6477979263  MEOH      431             0.0000000000
     18511      1123  MEOH      LP1B            4.1925531416      -31.2761773821      -11.2783878208  MEOH      431             0.0000000000
     18512      1124  MEOH      C1             -6.2942465078      -13.7351701633       15.7206601155  MEOH      432             0.0000000000
     18513      1124  MEOH      DC1            -6.2956819116      -13.7421158954       15.7195816070  MEOH      432             0.0000000000
     18514      1124  MEOH      O1             -6.0451061790      -15.1220648273       15.4781729266  MEOH      432             0.0000000000
     18515      1124  MEOH      DO1            -6.0483789138      -15.1316216809       15.4820532147  MEOH      432             0.0000000000
     18516      1124  MEOH      HO1            -6.0054741246      -15.5527445592       16.3464149832  MEOH      432             0.0000000000
     18517      1124  MEOH      HO2            -6.7017906557      -15.3987963585       14.8200808667  MEOH      432             0.0000000000
     18518      1124  MEOH      H1A            -6.2567022539      -13.1661704263       14.7671661573  MEOH      432             0.0000000000
     18519      1124  MEOH      H1B            -5.5283229128      -13.3268023597       16.4141424764  MEOH      432             0.0000000000
     18520      1124  MEOH      H1C            -7.3011466855      -13.6093168893       16.1730249969  MEOH      432             0.0000000000
     18521      1124  MEOH      LP1A           -6.3479907638      -15.2930836861       15.4392694786  MEOH      432             0.0000000000
     18522      1124  MEOH      LP1B           -5.7003967496      -15.1812787964       15.4651684989  MEOH      432             0.0000000000
     18523      1125  MEOH      C1             19.9009404644      -24.9886052517       14.5473937180  MEOH      433             0.0000000000
     18524      1125  MEOH      DC1            19.8893718224      -24.9696083735       14.5524846262  MEOH      433             0.0000000000
     18525      1125  MEOH      O1             18.9296117151      -23.9594352137       14.7624761946  MEOH      433             0.0000000000
     18526      1125  MEOH      DO1            18.9275507781      -23.9396148696       14.7573214035  MEOH      433             0.0000000000
     18527      1125  MEOH      HO1            18.5992207745      -24.0641604989       15.6684422210  MEOH      433             0.0000000000
     18528      1125  MEOH      HO2            19.3316570710      -23.1307658713       14.4582285096  MEOH      433             0.0000000000
     18529      1125  MEOH      H1A            20.1516786048      -25.0595028877       13.4673821854  MEOH      433             0.0000000000
     18530      1125  MEOH      H1B            19.5049967386      -25.9709154074       14.8829772753  MEOH      433             0.0000000000
     18531      1125  MEOH      H1C            20.8330009550      -24.7726112778       15.1121333455  MEOH      433             0.0000000000
     18532      1125  MEOH      LP1A           19.0858354152      -23.6710155874       14.8845756405  MEOH      433             0.0000000000
     18533      1125  MEOH      LP1B           18.6126217821      -24.0718841688       14.6656639285  MEOH      433             0.0000000000
     18534      1126  MEOH      C1            -18.7186249563      -14.5991632319       27.0907709390  MEOH      434             0.0000000000
     18535      1126  MEOH      DC1           -18.7300871049      -14.5992238957       27.0873669681  MEOH      434             0.0000000000
     18536      1126  MEOH      O1            -17.9837175726      -14.4136516382       28.3005353086  MEOH      434             0.0000000000
     18537      1126  MEOH      DO1           -17.9823679176      -14.4048069998       28.2973705385  MEOH      434             0.0000000000
     18538      1126  MEOH      HO1           -17.3008421811      -15.1018954650       28.3305625385  MEOH      434             0.0000000000
     18539      1126  MEOH      HO2           -17.7732444009      -13.4683575555       28.3554911288  MEOH      434             0.0000000000
     18540      1126  MEOH      H1A           -19.6466412768      -13.9904720308       27.1417781156  MEOH      434             0.0000000000
     18541      1126  MEOH      H1B           -18.9910681336      -15.6696606660       26.9718972265  MEOH      434             0.0000000000
     18542      1126  MEOH      H1C           -18.1135660962      -14.2739410826       26.2175840578  MEOH      434             0.0000000000
     18543      1126  MEOH      LP1A          -17.7169961411      -14.1936752834       28.2460368563  MEOH      434             0.0000000000
     18544      1126  MEOH      LP1B          -18.1338197646      -14.5935251767       28.5605638494  MEOH      434             0.0000000000
     18545      1127  MEOH      C1             -0.2735593905       27.8379679378      -13.8112506002  MEOH      435             0.0000000000
     18546      1127  MEOH      DC1            -0.2715290319       27.8447533558      -13.8260352402  MEOH      435             0.0000000000
     18547      1127  MEOH      O1              0.4961635015       28.9497858574      -14.2466088611  MEOH      435             0.0000000000
     18548      1127  MEOH      DO1             0.4981044551       28.9636051118      -14.2580855300  MEOH      435             0.0000000000
     18549      1127  MEOH      HO1             0.5601935974       29.5259382223      -13.4688887309  MEOH      435             0.0000000000
     18550      1127  MEOH      HO2             1.2964497026       28.5698263801      -14.6416693526  MEOH      435             0.0000000000
     18551      1127  MEOH      H1A            -0.4074508689       27.1192852631      -14.6478444593  MEOH      435             0.0000000000
     18552      1127  MEOH      H1B            -1.2576624472       28.1872150174      -13.4319240228  MEOH      435             0.0000000000
     18553      1127  MEOH      H1C             0.2291974221       27.3138236303      -12.9705191730  MEOH      435             0.0000000000
     18554      1127  MEOH      LP1A            0.8367510366       28.8865148537      -14.1966397604  MEOH      435             0.0000000000
     18555      1127  MEOH      LP1B            0.2861522268       29.1957465979      -14.3803944307  MEOH      435             0.0000000000
     18556      1128  MEOH      C1              2.8004369443       27.0717284703      -12.2361337809  MEOH      436             0.0000000000
     18557      1128  MEOH      DC1             2.8020543847       27.0712329981      -12.2304625143  MEOH      436             0.0000000000
     18558      1128  MEOH      O1              3.7866898887       28.0822999453      -12.0227684880  MEOH      436             0.0000000000
     18559      1128  MEOH      DO1             3.7798464422       28.0992227553      -12.0244123859  MEOH      436             0.0000000000
     18560      1128  MEOH      HO1             4.1210668565       27.9517650014      -11.1216288363  MEOH      436             0.0000000000
     18561      1128  MEOH      HO2             4.4032981139       27.9861368376      -12.7653632323  MEOH      436             0.0000000000
     18562      1128  MEOH      H1A             2.4290948043       27.1368051429      -13.2812132242  MEOH      436             0.0000000000
     18563      1128  MEOH      H1B             1.9527523960       27.2077597543      -11.5309760706  MEOH      436             0.0000000000
     18564      1128  MEOH      H1C             3.2458036847       26.0634417747      -12.0971107324  MEOH      436             0.0000000000
     18565      1128  MEOH      LP1A            4.1006519913       27.9667781405      -12.1256398188  MEOH      436             0.0000000000
     18566      1128  MEOH      LP1B            3.6362708923       28.3712334538      -11.8947389867  MEOH      436             0.0000000000
     18567      1129  MEOH      C1             -3.4351209805      -10.9110130991      -11.5303716701  MEOH      437             0.0000000000
     18568      1129  MEOH      DC1            -3.4416368279      -10.9284298621      -11.5299426474  MEOH      437             0.0000000000
     18569      1129  MEOH      O1             -2.1899347923      -11.2682724602      -12.1185930026  MEOH      437             0.0000000000
     18570      1129  MEOH      DO1            -2.1980427436      -11.2655788581      -12.1328029208  MEOH      437             0.0000000000
     18571      1129  MEOH      HO1            -1.5073323239      -11.0068095523      -11.4809481023  MEOH      437             0.0000000000
     18572      1129  MEOH      HO2            -2.2774617236      -12.1996856675      -12.3749296438  MEOH      437             0.0000000000
     18573      1129  MEOH      H1A            -4.2624911694      -11.1817009131      -12.2206670261  MEOH      437             0.0000000000
     18574      1129  MEOH      H1B            -3.4546558570       -9.8135944450      -11.3582912056  MEOH      437             0.0000000000
     18575      1129  MEOH      H1C            -3.5609856302      -11.4190473702      -10.5503817359  MEOH      437             0.0000000000
     18576      1129  MEOH      LP1A           -2.1062729669      -11.5967787179      -12.0315048999  MEOH      437             0.0000000000
     18577      1129  MEOH      LP1B           -2.0695736328      -11.0039346223      -12.3138843201  MEOH      437             0.0000000000
     18578      1130  MEOH      C1            -23.4823911261       19.7595503802      -21.0907895771  MEOH      438             0.0000000000
     18579      1130  MEOH      DC1           -23.4881051287       19.7562958766      -21.0889097219  MEOH      438             0.0000000000
     18580      1130  MEOH      O1            -24.6194774462       18.8997975455      -20.9946414540  MEOH      438             0.0000000000
     18581      1130  MEOH      DO1           -24.6274173316       18.9081535397      -20.9954001226  MEOH      438             0.0000000000
     18582      1130  MEOH      HO1           -24.4679333035       18.2928017263      -20.2533652240  MEOH      438             0.0000000000
     18583      1130  MEOH      HO2           -25.4002937602       19.4747116160      -21.0210932081  MEOH      438             0.0000000000
     18584      1130  MEOH      H1A           -23.5065967812       20.3155614010      -22.0523439599  MEOH      438             0.0000000000
     18585      1130  MEOH      H1B           -22.5399364186       19.1735088569      -21.0392584326  MEOH      438             0.0000000000
     18586      1130  MEOH      H1C           -23.5010256443       20.5079739916      -20.2699145237  MEOH      438             0.0000000000
     18587      1130  MEOH      LP1A          -24.8613220368       19.0439716455      -20.7867351700  MEOH      438             0.0000000000
     18588      1130  MEOH      LP1B          -24.5729645052       18.6168959109      -21.1953980516  MEOH      438             0.0000000000
     18589      1131  MEOH      C1              1.3665562704      -16.4298792698       18.8511078088  MEOH      439             0.0000000000
     18590      1131  MEOH      DC1             1.3608141864      -16.4517883054       18.8528924115  MEOH      439             0.0000000000
     18591      1131  MEOH      O1              2.3916122724      -15.8744929356       19.6698597724  MEOH      439             0.0000000000
     18592      1131  MEOH      DO1             2.3927428352      -15.8989120919       19.6671006384  MEOH      439             0.0000000000
     18593      1131  MEOH      HO1             2.1961432290      -14.9306215038       19.7784810102  MEOH      439             0.0000000000
     18594      1131  MEOH      HO2             2.4734033455      -16.4560026392       20.4419068472  MEOH      439             0.0000000000
     18595      1131  MEOH      H1A             1.6528375520      -17.4600296086       18.5491900928  MEOH      439             0.0000000000
     18596      1131  MEOH      H1B             1.2305549653      -15.8103123237       17.9389886029  MEOH      439             0.0000000000
     18597      1131  MEOH      H1C             0.4164257268      -16.4671078888       19.4257267962  MEOH      439             0.0000000000
     18598      1131  MEOH      LP1A            2.3025945350      -15.9006472668       20.0073383545  MEOH      439             0.0000000000
     18599      1131  MEOH      LP1B            2.6579046798      -15.7653077605       19.4706941346  MEOH      439             0.0000000000
     18600      1132  MEOH      C1            -26.0539381493      -11.0632996947       22.3688753353  MEOH      440             0.0000000000
     18601      1132  MEOH      DC1           -26.0652632716      -11.0659019480       22.3663868484  MEOH      440             0.0000000000
     18602      1132  MEOH      O1            -25.2763198575      -12.2574423170       22.3119730334  MEOH      440             0.0000000000
     18603      1132  MEOH      DO1           -25.2840021497      -12.2533898536       22.3072085959  MEOH      440             0.0000000000
     18604      1132  MEOH      HO1           -25.0220409506      -12.4995993232       23.2161866265  MEOH      440             0.0000000000
     18605      1132  MEOH      HO2           -25.7657131631      -12.8721130733       21.7431373326  MEOH      440             0.0000000000
     18606      1132  MEOH      H1A           -26.2000898079      -10.6704862053       21.3399641354  MEOH      440             0.0000000000
     18607      1132  MEOH      H1B           -25.5184838520      -10.2888427939       22.9586432599  MEOH      440             0.0000000000
     18608      1132  MEOH      H1C           -27.0457645433      -11.2670173675       22.8261504320  MEOH      440             0.0000000000
     18609      1132  MEOH      LP1A          -25.4854651051      -12.5374777296       22.3303695850  MEOH      440             0.0000000000
     18610      1132  MEOH      LP1B          -24.9377271101      -12.1780412342       22.2725976676  MEOH      440             0.0000000000
     18611      1133  MEOH      C1            -28.2517277601      -33.0020118223      -36.9731246698  MEOH      441             0.0000000000
     18612      1133  MEOH      DC1           -28.2548020758      -33.0027131376      -36.9792234784  MEOH      441             0.0000000000
     18613      1133  MEOH      O1            -29.2583690611      -33.9465585817      -36.5924259155  MEOH      441             0.0000000000
     18614      1133  MEOH      DO1           -29.2801679403      -33.9427234759      -36.6157146417  MEOH      441             0.0000000000
     18615      1133  MEOH      HO1           -29.6139591915      -34.3425423641      -37.4033836845  MEOH      441             0.0000000000
     18616      1133  MEOH      HO2           -28.8484570724      -34.5065678769      -35.9147373790  MEOH      441             0.0000000000
     18617      1133  MEOH      H1A           -27.7813878157      -32.5705084272      -36.0637808642  MEOH      441             0.0000000000
     18618      1133  MEOH      H1B           -28.7063654868      -32.1769436051      -37.5620966349  MEOH      441             0.0000000000
     18619      1133  MEOH      H1C           -27.4646200904      -33.5073861531      -37.5726071988  MEOH      441             0.0000000000
     18620      1133  MEOH      LP1A          -29.1137273576      -34.2608438556      -36.5394774099  MEOH      441             0.0000000000
     18621      1133  MEOH      LP1B          -29.5694812642      -33.7877006104      -36.5706694913  MEOH      441             0.0000000000
     18622      1134  MEOH      C1             36.8626415071      -18.2031486103      -24.2018843204  MEOH      442             0.0000000000
     18623      1134  MEOH      DC1            36.8674942320      -18.2018199803      -24.2069573483  MEOH      442             0.0000000000
     18624      1134  MEOH      O1             36.7144257882      -18.9261656046      -25.4281195014  MEOH      442             0.0000000000
     18625      1134  MEOH      DO1            36.7274710348      -18.9318124025      -25.4363058388  MEOH      442             0.0000000000
     18626      1134  MEOH      HO1            36.0403488815      -18.4555492449      -25.9429404088  MEOH      442             0.0000000000
     18627      1134  MEOH      HO2            37.6037950423      -19.1081517530      -25.7698845839  MEOH      442             0.0000000000
     18628      1134  MEOH      H1A            37.4830089180      -18.7922809365      -23.4930907127  MEOH      442             0.0000000000
     18629      1134  MEOH      H1B            35.8761689357      -18.0177000355      -23.7256473080  MEOH      442             0.0000000000
     18630      1134  MEOH      H1C            37.3415821185      -17.2197383823      -24.3964125098  MEOH      442             0.0000000000
     18631      1134  MEOH      LP1A           36.9403589524      -18.8051795738      -25.6664818006  MEOH      442             0.0000000000
     18632      1134  MEOH      LP1B           36.4716642781      -19.1756048223      -25.3914190124  MEOH      442             0.0000000000
     18633      1135  MEOH      C1             26.6778659443      -27.2992696357      -31.6985505069  MEOH      443             0.0000000000
     18634      1135  MEOH      DC1            26.6723449062      -27.3104034194      -31.7111966049  MEOH      443             0.0000000000
     18635      1135  MEOH      O1             25.6903848960      -26.8773662767      -32.6406672999  MEOH      443             0.0000000000
     18636      1135  MEOH      DO1            25.6786190006      -26.8931019610      -32.6536531497  MEOH      443             0.0000000000
     18637      1135  MEOH      HO1            26.0836589092      -26.9223825676      -33.5262231054  MEOH      443             0.0000000000
     18638      1135  MEOH      HO2            24.8592944551      -27.3128995367      -32.3947009232  MEOH      443             0.0000000000
     18639      1135  MEOH      H1A            26.3547935864      -27.0409849786      -30.6674179802  MEOH      443             0.0000000000
     18640      1135  MEOH      H1B            27.6384156777      -26.7751152291      -31.8907154616  MEOH      443             0.0000000000
     18641      1135  MEOH      H1C            26.8272003200      -28.3978740681      -31.7698845533  MEOH      443             0.0000000000
     18642      1135  MEOH      LP1A           25.5001261489      -27.1517452429      -32.7456329706  MEOH      443             0.0000000000
     18643      1135  MEOH      LP1B           25.7076847601      -26.5306205457      -32.6850307165  MEOH      443             0.0000000000
     18644      1136  MEOH      C1            -36.3332886059       25.8068412206      -28.7164716996  MEOH      444             0.0000000000
     18645      1136  MEOH      DC1           -36.3327414231       25.8094292967      -28.7131896180  MEOH      444             0.0000000000
     18646      1136  MEOH      O1            -36.5680664256       27.1270655399      -29.2106894465  MEOH      444             0.0000000000
     18647      1136  MEOH      DO1           -36.5544231326       27.1296935972      -29.2073794615  MEOH      444             0.0000000000
     18648      1136  MEOH      HO1           -37.3801930475       27.4836852975      -28.8180411323  MEOH      444             0.0000000000
     18649      1136  MEOH      HO2           -35.7262012344       27.5987634558      -29.3089954874  MEOH      444             0.0000000000
     18650      1136  MEOH      H1A           -35.8693967021       25.1998911638      -29.5231543700  MEOH      444             0.0000000000
     18651      1136  MEOH      H1B           -37.2833252770       25.3160197184      -28.4150657002  MEOH      444             0.0000000000
     18652      1136  MEOH      H1C           -35.6621388462       25.8397098218      -27.8317126043  MEOH      444             0.0000000000
     18653      1136  MEOH      LP1A          -36.4079346808       27.3616727950      -29.0061967569  MEOH      444             0.0000000000
     18654      1136  MEOH      LP1B          -36.7579957186       27.1129460089      -29.5043346449  MEOH      444             0.0000000000
     18655      1137  MEOH      C1             35.2667123726        5.5257710205       11.6437468722  MEOH      445             0.0000000000
     18656      1137  MEOH      DC1            35.2628303380        5.5276549247       11.6472838920  MEOH      445             0.0000000000
     18657      1137  MEOH      O1             34.1956715373        6.3906775327       12.0173873232  MEOH      445             0.0000000000
     18658      1137  MEOH      DO1            34.1968963495        6.3931243956       12.0232428269  MEOH      445             0.0000000000
     18659      1137  MEOH      HO1            34.1094217169        7.0581638705       11.3188725007  MEOH      445             0.0000000000
     18660      1137  MEOH      HO2            33.4529301622        5.8162651537       12.2608738125  MEOH      445             0.0000000000
     18661      1137  MEOH      H1A            35.4384286199        4.7981148709       12.4655443292  MEOH      445             0.0000000000
     18662      1137  MEOH      H1B            36.2089779038        6.0919627569       11.4828631040  MEOH      445             0.0000000000
     18663      1137  MEOH      H1C            35.0078552315        4.9771221583       10.7129953444  MEOH      445             0.0000000000
     18664      1137  MEOH      LP1A           33.8926650927        6.2660788046       11.8942522287  MEOH      445             0.0000000000
     18665      1137  MEOH      LP1B           34.3173207422        6.6543233719       12.2128159352  MEOH      445             0.0000000000
     18666      1138  MEOH      C1             20.7405645164       -1.7799242769       17.8136196614  MEOH      446             0.0000000000
     18667      1138  MEOH      DC1            20.7422985030       -1.7900443553       17.8032923111  MEOH      446             0.0000000000
     18668      1138  MEOH      O1             21.5602214384       -0.9532395089       18.6395431031  MEOH      446             0.0000000000
     18669      1138  MEOH      DO1            21.5526335332       -0.9518242290       18.6258918263  MEOH      446             0.0000000000
     18670      1138  MEOH      HO1            21.1530735716       -0.8836536236       19.5172038695  MEOH      446             0.0000000000
     18671      1138  MEOH      HO2            22.4648891849       -1.2927328367       18.5545692905  MEOH      446             0.0000000000
     18672      1138  MEOH      H1A            21.2198904333       -1.8719043866       16.8155678968  MEOH      446             0.0000000000
     18673      1138  MEOH      H1B            19.7275553178       -1.3387456873       17.6974524643  MEOH      446             0.0000000000
     18674      1138  MEOH      H1C            20.6363074447       -2.7914899479       18.2610415618  MEOH      446             0.0000000000
     18675      1138  MEOH      LP1A           21.8003627795       -1.1482344400       18.8032779898  MEOH      446             0.0000000000
     18676      1138  MEOH      LP1B           21.4649132271       -0.6181772818       18.6056366312  MEOH      446             0.0000000000
     18677      1139  MEOH      C1            -13.4515285244       28.5266453379       21.1984221463  MEOH      447             0.0000000000
     18678      1139  MEOH      DC1           -13.4604166858       28.5156415747       21.1997613153  MEOH      447             0.0000000000
     18679      1139  MEOH      O1            -12.5154517620       27.6426539236       21.8119847023  MEOH      447             0.0000000000
     18680      1139  MEOH      DO1           -12.5217686092       27.6387564734       21.8169583062  MEOH      447             0.0000000000
     18681      1139  MEOH      HO1           -12.2272638579       27.0211893742       21.1252318009  MEOH      447             0.0000000000
     18682      1139  MEOH      HO2           -11.8536357873       28.2242365411       22.2177694664  MEOH      447             0.0000000000
     18683      1139  MEOH      H1A           -13.7624774573       29.3037949559       21.9289495127  MEOH      447             0.0000000000
     18684      1139  MEOH      H1B           -14.3493911340       27.9724820507       20.8504756196  MEOH      447             0.0000000000
     18685      1139  MEOH      H1C           -12.9719260787       29.0250416501       20.3289949720  MEOH      447             0.0000000000
     18686      1139  MEOH      LP1A          -12.1922378354       27.7746549075       21.7873169526  MEOH      447             0.0000000000
     18687      1139  MEOH      LP1B          -12.6828306547       27.3678052674       21.9496165390  MEOH      447             0.0000000000
     18688      1140  MEOH      C1            -21.5408706205        2.9519759013       30.7392280244  MEOH      448             0.0000000000
     18689      1140  MEOH      DC1           -21.5647879440        2.9598252997       30.7324586549  MEOH      448             0.0000000000
     18690      1140  MEOH      O1            -20.7489747455        2.5543036176       29.6195920797  MEOH      448             0.0000000000
     18691      1140  MEOH      DO1           -20.7605062121        2.5564769889       29.6139012245  MEOH      448             0.0000000000
     18692      1140  MEOH      HO1           -21.3025938374        2.5505042652       28.8231051258  MEOH      448             0.0000000000
     18693      1140  MEOH      HO2           -19.9651624290        3.1249929855       29.6487793692  MEOH      448             0.0000000000
     18694      1140  MEOH      H1A           -20.9117507336        3.0063352178       31.6533255211  MEOH      448             0.0000000000
     18695      1140  MEOH      H1B           -22.3484686676        2.2119553496       30.9249051024  MEOH      448             0.0000000000
     18696      1140  MEOH      H1C           -21.9696295912        3.9613317116       30.5612179263  MEOH      448             0.0000000000
     18697      1140  MEOH      LP1A          -20.5994610718        2.8347895403       29.4730543420  MEOH      448             0.0000000000
     18698      1140  MEOH      LP1B          -20.7565593362        2.2060752398       29.5852486538  MEOH      448             0.0000000000
     18699      1141  MEOH      C1            -29.4059941503       24.1181373587        5.2057925218  MEOH      449             0.0000000000
     18700      1141  MEOH      DC1           -29.4150041719       24.1288195036        5.2135215207  MEOH      449             0.0000000000
     18701      1141  MEOH      O1            -28.4516981221       23.1568029543        4.7538253741  MEOH      449             0.0000000000
     18702      1141  MEOH      DO1           -28.4582980573       23.1551627826        4.7706571173  MEOH      449             0.0000000000
     18703      1141  MEOH      HO1           -27.6021628266       23.3187697898        5.1930935455  MEOH      449             0.0000000000
     18704      1141  MEOH      HO2           -28.8965563543       22.2948404079        4.7584860471  MEOH      449             0.0000000000
     18705      1141  MEOH      H1A           -30.2968106635       24.0951674729        4.5422871896  MEOH      449             0.0000000000
     18706      1141  MEOH      H1B           -28.9650424502       25.1377061437        5.1867638276  MEOH      449             0.0000000000
     18707      1141  MEOH      H1C           -29.7102552201       23.8710008774        6.2453451953  MEOH      449             0.0000000000
     18708      1141  MEOH      LP1A          -28.4634628999       22.8718941701        4.9567750594  MEOH      449             0.0000000000
     18709      1141  MEOH      LP1B          -28.2879077199       23.2758069227        4.4683244816  MEOH      449             0.0000000000
     18710      1142  MEOH      C1             -2.3550739057      -21.3291477205      -31.8176633361  MEOH      450             0.0000000000
     18711      1142  MEOH      DC1            -2.3529974038      -21.3443120978      -31.8149329259  MEOH      450             0.0000000000
     18712      1142  MEOH      O1             -2.9150036360      -20.0323001541      -31.6268817723  MEOH      450             0.0000000000
     18713      1142  MEOH      DO1            -2.9096019334      -20.0435370998      -31.6205299413  MEOH      450             0.0000000000
     18714      1142  MEOH      HO1            -3.6619009777      -20.1062621010      -31.0124112750  MEOH      450             0.0000000000
     18715      1142  MEOH      HO2            -2.1701120923      -19.4448642852      -31.4245066548  MEOH      450             0.0000000000
     18716      1142  MEOH      H1A            -1.5523194077      -21.2670998424      -32.5832064625  MEOH      450             0.0000000000
     18717      1142  MEOH      H1B            -3.1429912747      -22.0309754669      -32.1654348626  MEOH      450             0.0000000000
     18718      1142  MEOH      H1C            -1.9080672321      -21.7017984452      -30.8712820857  MEOH      450             0.0000000000
     18719      1142  MEOH      LP1A           -2.7546856901      -19.8706126303      -31.3610711238  MEOH      450             0.0000000000
     18720      1142  MEOH      LP1B           -3.1615585377      -19.9717387189      -31.8678029068  MEOH      450             0.0000000000
     18721      1143  MEOH      C1             12.6267399888      -23.4963462504       18.0179867814  MEOH      451             0.0000000000
     18722      1143  MEOH      DC1            12.6236047427      -23.5009059362       18.0222807651  MEOH      451             0.0000000000
     18723      1143  MEOH      O1             13.7590169791      -23.3813157788       17.1554774717  MEOH      451             0.0000000000
     18724      1143  MEOH      DO1            13.7467154789      -23.3969136099       17.1530360775  MEOH      451             0.0000000000
     18725      1143  MEOH      HO1            13.6394180311      -22.6139856431       16.5742713512  MEOH      451             0.0000000000
     18726      1143  MEOH      HO2            14.5338448788      -23.4174842156       17.7379150834  MEOH      451             0.0000000000
     18727      1143  MEOH      H1A            12.7685596765      -24.3960837463       18.6541319022  MEOH      451             0.0000000000
     18728      1143  MEOH      H1B            11.6944702645      -23.6118742067       17.4248194748  MEOH      451             0.0000000000
     18729      1143  MEOH      H1C            12.5412828497      -22.6067698796       18.6780412930  MEOH      451             0.0000000000
     18730      1143  MEOH      LP1A           14.0057744430      -23.1850245151       17.3074001291  MEOH      451             0.0000000000
     18731      1143  MEOH      LP1B           13.7067498409      -23.5676132283       16.8638245846  MEOH      451             0.0000000000
     18732      1144  MEOH      C1             18.6066320044      -35.1575821683        0.8572860181  MEOH      452             0.0000000000
     18733      1144  MEOH      DC1            18.6097210718      -35.1470478218        0.8565191321  MEOH      452             0.0000000000
     18734      1144  MEOH      O1             19.0732231051      -36.4100962217        1.3605750347  MEOH      452             0.0000000000
     18735      1144  MEOH      DO1            19.0777038124      -36.3998633913        1.3615213984  MEOH      452             0.0000000000
     18736      1144  MEOH      HO1            19.6918353853      -36.2340630296        2.0866818884  MEOH      452             0.0000000000
     18737      1144  MEOH      HO2            18.2772989452      -36.9364451049        1.5348207944  MEOH      452             0.0000000000
     18738      1144  MEOH      H1A            17.9458010932      -35.3373678508       -0.0175286002  MEOH      452             0.0000000000
     18739      1144  MEOH      H1B            19.4637964104      -34.5318622885        0.5285538879  MEOH      452             0.0000000000
     18740      1144  MEOH      H1C            18.0256323075      -34.6249027189        1.6402374575  MEOH      452             0.0000000000
     18741      1144  MEOH      LP1A           18.8596561107      -36.5246938447        1.6130755767  MEOH      452             0.0000000000
     18742      1144  MEOH      LP1B           19.3585329146      -36.5109708697        1.1847267535  MEOH      452             0.0000000000
     18743      1145  MEOH      C1             14.6064891670       22.1100683543      -31.4925645236  MEOH      453             0.0000000000
     18744      1145  MEOH      DC1            14.5901756877       22.1122906651      -31.4894515473  MEOH      453             0.0000000000
     18745      1145  MEOH      O1             15.9608675924       21.7594481736      -31.7864165216  MEOH      453             0.0000000000
     18746      1145  MEOH      DO1            15.9561575322       21.7662010137      -31.7841949643  MEOH      453             0.0000000000
     18747      1145  MEOH      HO1            16.3057454575       21.2536043013      -31.0340328196  MEOH      453             0.0000000000
     18748      1145  MEOH      HO2            15.9453827782       21.3621461585      -32.6711827788  MEOH      453             0.0000000000
     18749      1145  MEOH      H1A            14.1932203709       22.7148095000      -32.3279195682  MEOH      453             0.0000000000
     18750      1145  MEOH      H1B            14.5643352250       22.7091578272      -30.5578796307  MEOH      453             0.0000000000
     18751      1145  MEOH      H1C            13.9974617618       21.1873559486      -31.3829815140  MEOH      453             0.0000000000
     18752      1145  MEOH      LP1A           15.9711663768       21.4537707096      -31.9565788648  MEOH      453             0.0000000000
     18753      1145  MEOH      LP1B           16.1765937706       22.0117897153      -31.6755744610  MEOH      453             0.0000000000
     18754      1146  MEOH      C1            -26.3782269935       12.9338333773       -8.0576502068  MEOH      454             0.0000000000
     18755      1146  MEOH      DC1           -26.3739888540       12.9344286967       -8.0603906905  MEOH      454             0.0000000000
     18756      1146  MEOH      O1            -26.6080833554       14.2671848224       -8.4713820451  MEOH      454             0.0000000000
     18757      1146  MEOH      DO1           -26.6102463210       14.2592244749       -8.4697421569  MEOH      454             0.0000000000
     18758      1146  MEOH      HO1           -26.2721108163       14.4032426704       -9.3711101795  MEOH      454             0.0000000000
     18759      1146  MEOH      HO2           -27.5203593308       14.4827326486       -8.2219994490  MEOH      454             0.0000000000
     18760      1146  MEOH      H1A           -26.6496198469       12.8474387094       -6.9837773649  MEOH      454             0.0000000000
     18761      1146  MEOH      H1B           -25.3086869849       12.6589317185       -8.1794461397  MEOH      454             0.0000000000
     18762      1146  MEOH      H1C           -27.0187307142       12.2466111264       -8.6507788287  MEOH      454             0.0000000000
     18763      1146  MEOH      LP1A          -26.9221225069       14.2927854807       -8.6237763284  MEOH      454             0.0000000000
     18764      1146  MEOH      LP1B          -26.3378693452       14.4694932740       -8.3788851309  MEOH      454             0.0000000000
     18765      1147  MEOH      C1            -20.4369844929       17.9943340448      -13.5244918811  MEOH      455             0.0000000000
     18766      1147  MEOH      DC1           -20.4421398010       17.9977761544      -13.5204327591  MEOH      455             0.0000000000
     18767      1147  MEOH      O1            -20.3356943943       19.3837836741      -13.8262137262  MEOH      455             0.0000000000
     18768      1147  MEOH      DO1           -20.3383749454       19.3893845406      -13.8307698421  MEOH      455             0.0000000000
     18769      1147  MEOH      HO1           -21.2153329778       19.7625383180      -13.6723277824  MEOH      455             0.0000000000
     18770      1147  MEOH      HO2           -19.5759983122       19.7043369149      -13.3153248119  MEOH      455             0.0000000000
     18771      1147  MEOH      H1A           -19.4470241701       17.5098633350      -13.6644479161  MEOH      455             0.0000000000
     18772      1147  MEOH      H1B           -21.1773171699       17.5171398465      -14.2016286653  MEOH      455             0.0000000000
     18773      1147  MEOH      H1C           -20.7621807692       17.8302003838      -12.4749069510  MEOH      455             0.0000000000
     18774      1147  MEOH      LP1A          -20.2402946348       19.5617197859      -13.5403157968  MEOH      455             0.0000000000
     18775      1147  MEOH      LP1B          -20.4029884319       19.4378411191      -14.1654029140  MEOH      455             0.0000000000
     18776      1148  MEOH      C1             -9.9440834732       22.0718601355      -26.2714104862  MEOH      456             0.0000000000
     18777      1148  MEOH      DC1            -9.9477992713       22.0750229103      -26.2827542163  MEOH      456             0.0000000000
     18778      1148  MEOH      O1             -8.6214818089       21.9192569409      -26.7948137440  MEOH      456             0.0000000000
     18779      1148  MEOH      DO1            -8.6366977512       21.9312252352      -26.8206810400  MEOH      456             0.0000000000
     18780      1148  MEOH      HO1            -7.9909572775       22.0618789597      -26.0716278931  MEOH      456             0.0000000000
     18781      1148  MEOH      HO2            -8.6162230710       21.0526887291      -27.2306254940  MEOH      456             0.0000000000
     18782      1148  MEOH      H1A           -10.6916794655       21.7948726688      -27.0451670228  MEOH      456             0.0000000000
     18783      1148  MEOH      H1B           -10.1180077942       23.1234569388      -25.9580169722  MEOH      456             0.0000000000
     18784      1148  MEOH      H1C           -10.0785449232       21.3987032896      -25.3978539745  MEOH      456             0.0000000000
     18785      1148  MEOH      LP1A           -8.5218999617       21.5844489493      -26.7727442061  MEOH      456             0.0000000000
     18786      1148  MEOH      LP1B           -8.5040817716       22.2263460069      -26.9148701342  MEOH      456             0.0000000000
     18787      1149  MEOH      C1            -33.2849600609       11.7084575548      -16.8401442695  MEOH      457             0.0000000000
     18788      1149  MEOH      DC1           -33.3273222030       11.6873274827      -16.8495653437  MEOH      457             0.0000000000
     18789      1149  MEOH      O1            -34.2298160315       12.7405602441      -17.1221610769  MEOH      457             0.0000000000
     18790      1149  MEOH      DO1           -34.2657975261       12.7219190634      -17.1402263444  MEOH      457             0.0000000000
     18791      1149  MEOH      HO1           -33.6787153929       13.5386783094      -17.1081739427  MEOH      457             0.0000000000
     18792      1149  MEOH      HO2           -34.7127659225       12.4606737726      -17.9154598648  MEOH      457             0.0000000000
     18793      1149  MEOH      H1A           -33.7878313137       10.7417032284      -16.6237474632  MEOH      457             0.0000000000
     18794      1149  MEOH      H1B           -32.6744258080       12.0080092780      -15.9616013328  MEOH      457             0.0000000000
     18795      1149  MEOH      H1C           -32.5975514093       11.5926722193      -17.7052362310  MEOH      457             0.0000000000
     18796      1149  MEOH      LP1A          -34.2549733481       12.7886061140      -17.4679336956  MEOH      457             0.0000000000
     18797      1149  MEOH      LP1B          -34.3714960495       12.8577863540      -16.8243611245  MEOH      457             0.0000000000
     18798      1150  MEOH      C1            -33.6956907276        7.2707963565      -36.6566386519  MEOH      458             0.0000000000
     18799      1150  MEOH      DC1           -33.6942438635        7.2719765313      -36.6572074252  MEOH      458             0.0000000000
     18800      1150  MEOH      O1            -33.3963694240        5.9379928090      -37.0775491185  MEOH      458             0.0000000000
     18801      1150  MEOH      DO1           -33.3966567083        5.9362054238      -37.0796123882  MEOH      458             0.0000000000
     18802      1150  MEOH      HO1           -32.5161359651        5.9615320909      -37.4844089980  MEOH      458             0.0000000000
     18803      1150  MEOH      HO2           -33.5558526803        5.3764200644      -36.3028871641  MEOH      458             0.0000000000
     18804      1150  MEOH      H1A           -34.7115899084        7.3034886034      -36.2080842271  MEOH      458             0.0000000000
     18805      1150  MEOH      H1B           -33.6579360501        7.9646409797      -37.5235153578  MEOH      458             0.0000000000
     18806      1150  MEOH      H1C           -32.9520009307        7.5985171906      -35.8991127170  MEOH      458             0.0000000000
     18807      1150  MEOH      LP1A          -33.2394991705        5.7629444891      -36.8182234366  MEOH      458             0.0000000000
     18808      1150  MEOH      LP1B          -33.5132623126        5.8862569663      -37.4033703197  MEOH      458             0.0000000000
     18809      1151  MEOH      C1            -16.4079395904      -27.9516360274        8.4200428752  MEOH      459             0.0000000000
     18810      1151  MEOH      DC1           -16.4001785138      -27.9665555076        8.4221935847  MEOH      459             0.0000000000
     18811      1151  MEOH      O1            -16.5816063488      -26.7502103998        9.1646730977  MEOH      459             0.0000000000
     18812      1151  MEOH      DO1           -16.5658684742      -26.7653485997        9.1581051832  MEOH      459             0.0000000000
     18813      1151  MEOH      HO1           -16.2661346869      -25.9948531890        8.6442760225  MEOH      459             0.0000000000
     18814      1151  MEOH      HO2           -17.5011475367      -26.7650243304        9.4730957804  MEOH      459             0.0000000000
     18815      1151  MEOH      H1A           -16.7574983038      -28.8112072977        9.0309986338  MEOH      459             0.0000000000
     18816      1151  MEOH      H1B           -15.3336705767      -28.0891484365        8.1723385676  MEOH      459             0.0000000000
     18817      1151  MEOH      H1C           -17.0115025171      -27.9054613649        7.4884309957  MEOH      459             0.0000000000
     18818      1151  MEOH      LP1A          -16.8987102211      -26.6156944409        9.1026199674  MEOH      459             0.0000000000
     18819      1151  MEOH      LP1B          -16.2981646260      -26.6887774932        9.3605985626  MEOH      459             0.0000000000
     18820      1152  MEOH      C1            -30.6924729348      -32.7346783378      -27.4004991951  MEOH      460             0.0000000000
     18821      1152  MEOH      DC1           -30.7013805874      -32.7375342803      -27.4025266898  MEOH      460             0.0000000000
     18822      1152  MEOH      O1            -31.8699591300      -33.5436800937      -27.4815137174  MEOH      460             0.0000000000
     18823      1152  MEOH      DO1           -31.8775790582      -33.5447496437      -27.4811799594  MEOH      460             0.0000000000
     18824      1152  MEOH      HO1           -31.9845680122      -33.7853957986      -28.4138968590  MEOH      460             0.0000000000
     18825      1152  MEOH      HO2           -31.7506779697      -34.2421619711      -26.8190976309  MEOH      460             0.0000000000
     18826      1152  MEOH      H1A           -30.5330416799      -32.4108323198      -26.3497725735  MEOH      460             0.0000000000
     18827      1152  MEOH      H1B           -30.7972086565      -31.8287758230      -28.0350794209  MEOH      460             0.0000000000
     18828      1152  MEOH      H1C           -29.8061053542      -33.3142507952      -27.7363105685  MEOH      460             0.0000000000
     18829      1152  MEOH      LP1A          -31.7871683204      -33.8805617747      -27.4350765033  MEOH      460             0.0000000000
     18830      1152  MEOH      LP1B          -32.1512328190      -33.3411507249      -27.5301651991  MEOH      460             0.0000000000
     18831      1153  MEOH      C1             25.6172418797        7.3306992522        8.2642526759  MEOH      461             0.0000000000
     18832      1153  MEOH      DC1            25.6151798663        7.3217320346        8.2583154334  MEOH      461             0.0000000000
     18833      1153  MEOH      O1             25.7777485638        8.7183468907        7.9954527161  MEOH      461             0.0000000000
     18834      1153  MEOH      DO1            25.7863960940        8.7086464325        7.9895708673  MEOH      461             0.0000000000
     18835      1153  MEOH      HO1            24.9869723350        9.1594671492        8.3432829527  MEOH      461             0.0000000000
     18836      1153  MEOH      HO2            26.6539459990        8.9507375209        8.3406666371  MEOH      461             0.0000000000
     18837      1153  MEOH      H1A            26.4887274141        6.7729917805        7.8595350706  MEOH      461             0.0000000000
     18838      1153  MEOH      H1B            24.6802777073        6.9660223070        7.7915689918  MEOH      461             0.0000000000
     18839      1153  MEOH      H1C            25.5572382216        7.1497584573        9.3587758558  MEOH      461             0.0000000000
     18840      1153  MEOH      LP1A           25.9457601512        8.8730084831        8.2606920389  MEOH      461             0.0000000000
     18841      1153  MEOH      LP1B           25.6468943804        8.7950998655        7.6800384432  MEOH      461             0.0000000000
     18842      1154  MEOH      C1              5.5416375199      -18.6747987955       31.2226329819  MEOH      462             0.0000000000
     18843      1154  MEOH      DC1             5.5355741835      -18.6891438809       31.2170813637  MEOH      462             0.0000000000
     18844      1154  MEOH      O1              4.8084160330      -19.6813842968       30.5181332695  MEOH      462             0.0000000000
     18845      1154  MEOH      DO1             4.7961549966      -19.6892055450       30.5187201495  MEOH      462             0.0000000000
     18846      1154  MEOH      HO1             5.2324450843      -20.5328644498       30.7080830376  MEOH      462             0.0000000000
     18847      1154  MEOH      HO2             3.8708537121      -19.5172613119       30.7050571588  MEOH      462             0.0000000000
     18848      1154  MEOH      H1A             5.1951668720      -17.6677289772       30.9062637785  MEOH      462             0.0000000000
     18849      1154  MEOH      H1B             6.6258175865      -18.7629329001       30.9965644903  MEOH      462             0.0000000000
     18850      1154  MEOH      H1C             5.3858788100      -18.7751562662       32.3180728948  MEOH      462             0.0000000000
     18851      1154  MEOH      LP1A            4.5472257854      -19.8011481125       30.7179739137  MEOH      462             0.0000000000
     18852      1154  MEOH      LP1B            4.9398296142      -19.7220122118       30.1962950443  MEOH      462             0.0000000000
     18853      1155  MEOH      C1             -4.1431106156      -24.2950996199      -13.5842416327  MEOH      463             0.0000000000
     18854      1155  MEOH      DC1            -4.1337871894      -24.2990195153      -13.5773495332  MEOH      463             0.0000000000
     18855      1155  MEOH      O1             -5.3124430983      -24.7048192587      -14.2900173163  MEOH      463             0.0000000000
     18856      1155  MEOH      DO1            -5.3101331478      -24.7067795058      -14.2777576284  MEOH      463             0.0000000000
     18857      1155  MEOH      HO1            -5.5090498469      -24.0149375233      -14.9429407255  MEOH      463             0.0000000000
     18858      1155  MEOH      HO2            -5.1406161445      -25.6143023753      -14.5802171760  MEOH      463             0.0000000000
     18859      1155  MEOH      H1A            -3.9437816077      -24.9985685289      -12.7477486908  MEOH      463             0.0000000000
     18860      1155  MEOH      H1B            -4.3090575171      -23.2742616307      -13.1784431284  MEOH      463             0.0000000000
     18861      1155  MEOH      H1C            -3.2677885499      -24.2801434020      -14.2682800767  MEOH      463             0.0000000000
     18862      1155  MEOH      LP1A           -5.2231291616      -24.8994404557      -14.5668667526  MEOH      463             0.0000000000
     18863      1155  MEOH      LP1B           -5.5985572675      -24.5885527582      -14.1253334281  MEOH      463             0.0000000000
     18864      1156  MEOH      C1              3.5717663231       -9.3726598902       29.5221578077  MEOH      464             0.0000000000
     18865      1156  MEOH      DC1             3.5707679236       -9.3718146644       29.5222433486  MEOH      464             0.0000000000
     18866      1156  MEOH      O1              2.4528671458       -8.4969242879       29.3707470748  MEOH      464             0.0000000000
     18867      1156  MEOH      DO1             2.4547286524       -8.4948153024       29.3696479005  MEOH      464             0.0000000000
     18868      1156  MEOH      HO1             2.1499913077       -8.5732845409       28.4524141618  MEOH      464             0.0000000000
     18869      1156  MEOH      HO2             1.8437032344       -8.7203420813       30.0917906370  MEOH      464             0.0000000000
     18870      1156  MEOH      H1A             3.9598720850       -9.3038939506       30.5608907686  MEOH      464             0.0000000000
     18871      1156  MEOH      H1B             4.3803041443       -9.0849825765       28.8165875738  MEOH      464             0.0000000000
     18872      1156  MEOH      H1C             3.2644461276      -10.4232285341       29.3319452317  MEOH      464             0.0000000000
     18873      1156  MEOH      LP1A            2.1569480075       -8.6658683716       29.4506830504  MEOH      464             0.0000000000
     18874      1156  MEOH      LP1B            2.5622758865       -8.1781189943       29.2764448360  MEOH      464             0.0000000000
     18875      1157  MEOH      C1             10.9022122604       -0.0028745318      -32.9315219028  MEOH      465             0.0000000000
     18876      1157  MEOH      DC1            10.9020705879       -0.0019738575      -32.9143495442  MEOH      465             0.0000000000
     18877      1157  MEOH      O1             10.6959808495        0.8689817377      -31.8214022552  MEOH      465             0.0000000000
     18878      1157  MEOH      DO1            10.6958098961        0.8690618517      -31.8112169333  MEOH      465             0.0000000000
     18879      1157  MEOH      HO1            11.1912261076        1.6785371875      -32.0220315355  MEOH      465             0.0000000000
     18880      1157  MEOH      HO2             9.7330810159        0.9187721639      -31.7153606383  MEOH      465             0.0000000000
     18881      1157  MEOH      H1A            10.3985792976       -0.9788547594      -32.7637797350  MEOH      465             0.0000000000
     18882      1157  MEOH      H1B            11.9856793539       -0.1600949055      -33.1204711319  MEOH      465             0.0000000000
     18883      1157  MEOH      H1C            10.4483146560        0.4674527756      -33.8299038874  MEOH      465             0.0000000000
     18884      1157  MEOH      LP1A           10.4099907005        1.0638414016      -31.8737410175  MEOH      465             0.0000000000
     18885      1157  MEOH      LP1B           10.9407875067        0.8124869668      -31.5777261557  MEOH      465             0.0000000000
     18886      1158  MEOH      C1            -30.7946011958      -18.6365744341      -17.9830067661  MEOH      466             0.0000000000
     18887      1158  MEOH      DC1           -30.7959949294      -18.6418082471      -17.9754592717  MEOH      466             0.0000000000
     18888      1158  MEOH      O1            -29.4075780898      -18.5735197043      -17.6486231871  MEOH      466             0.0000000000
     18889      1158  MEOH      DO1           -29.4093715568      -18.5756959738      -17.6447719684  MEOH      466             0.0000000000
     18890      1158  MEOH      HO1           -29.3262614679      -18.1773707388      -16.7669465997  MEOH      466             0.0000000000
     18891      1158  MEOH      HO2           -29.0446944183      -19.4538498742      -17.8336481390  MEOH      466             0.0000000000
     18892      1158  MEOH      H1A           -30.8939642873      -18.8964305649      -19.0586102098  MEOH      466             0.0000000000
     18893      1158  MEOH      H1B           -31.2792359014      -17.6504386930      -17.8187310765  MEOH      466             0.0000000000
     18894      1158  MEOH      H1C           -31.3011988710      -19.4138889842      -17.3718914844  MEOH      466             0.0000000000
     18895      1158  MEOH      LP1A          -29.3092008753      -18.8693961538      -17.4896293184  MEOH      466             0.0000000000
     18896      1158  MEOH      LP1B          -29.2707844206      -18.2718414222      -17.7616617036  MEOH      466             0.0000000000
     18897      1159  MEOH      C1             28.6752313771       -4.3065083899      -29.2421344347  MEOH      467             0.0000000000
     18898      1159  MEOH      DC1            28.6823535450       -4.3191916184      -29.2381639807  MEOH      467             0.0000000000
     18899      1159  MEOH      O1             28.4318729644       -5.4220439585      -28.3905445058  MEOH      467             0.0000000000
     18900      1159  MEOH      DO1            28.4488678164       -5.4304568555      -28.3945406213  MEOH      467             0.0000000000
     18901      1159  MEOH      HO1            29.2297480082       -5.5635636379      -27.8573769948  MEOH      467             0.0000000000
     18902      1159  MEOH      HO2            27.5949612426       -5.2252410799      -27.9413815081  MEOH      467             0.0000000000
     18903      1159  MEOH      H1A            27.7797148465       -4.1124101120      -29.8703835910  MEOH      467             0.0000000000
     18904      1159  MEOH      H1B            29.5471818617       -4.4872187988      -29.9064890844  MEOH      467             0.0000000000
     18905      1159  MEOH      H1C            28.8842654376       -3.4120790868      -28.6171368468  MEOH      467             0.0000000000
     18906      1159  MEOH      LP1A           28.2877387404       -5.3142869688      -28.0903549712  MEOH      467             0.0000000000
     18907      1159  MEOH      LP1B           28.5245740407       -5.7183987277      -28.5520386580  MEOH      467             0.0000000000
     18908      1160  MEOH      C1             12.7331808159      -25.7149725371      -11.9030467108  MEOH      468             0.0000000000
     18909      1160  MEOH      DC1            12.7422408036      -25.7098922608      -11.9100420130  MEOH      468             0.0000000000
     18910      1160  MEOH      O1             11.5358450008      -26.4939020849      -11.8401565615  MEOH      468             0.0000000000
     18911      1160  MEOH      DO1            11.5386214516      -26.4876377779      -11.8492351246  MEOH      468             0.0000000000
     18912      1160  MEOH      HO1            11.4343372024      -26.8291352006      -10.9356042275  MEOH      468             0.0000000000
     18913      1160  MEOH      HO2            10.8403254454      -25.9656987677      -12.2622392612  MEOH      468             0.0000000000
     18914      1160  MEOH      H1A            12.9103265976      -25.3841228934      -12.9487421188  MEOH      468             0.0000000000
     18915      1160  MEOH      H1B            13.6047449043      -26.3091156749      -11.5542043802  MEOH      468             0.0000000000
     18916      1160  MEOH      H1C            12.6287680456      -24.8182311025      -11.2555331782  MEOH      468             0.0000000000
     18917      1160  MEOH      LP1A           11.2637560392      -26.2889092324      -11.7598725198  MEOH      468             0.0000000000
     18918      1160  MEOH      LP1B           11.6054978450      -26.8272311097      -11.9210283274  MEOH      468             0.0000000000
     18919      1161  MEOH      C1             13.0574045916       10.6188162750       -3.1457783964  MEOH      469             0.0000000000
     18920      1161  MEOH      DC1            13.0638454065       10.6139274722       -3.1272780493  MEOH      469             0.0000000000
     18921      1161  MEOH      O1             12.9671686005       10.0545130569       -1.8395091007  MEOH      469             0.0000000000
     18922      1161  MEOH      DO1            12.9755318938       10.0480377125       -1.8274874799  MEOH      469             0.0000000000
     18923      1161  MEOH      HO1            12.1141172748       10.3543237764       -1.4883439414  MEOH      469             0.0000000000
     18924      1161  MEOH      HO2            13.1333316535        9.1063954124       -1.9593538835  MEOH      469             0.0000000000
     18925      1161  MEOH      H1A            14.0290247874       10.3381306310       -3.6056596485  MEOH      469             0.0000000000
     18926      1161  MEOH      H1B            12.9727446277       11.7256326936       -3.0998316177  MEOH      469             0.0000000000
     18927      1161  MEOH      H1C            12.2626597074       10.2196139480       -3.8116155171  MEOH      469             0.0000000000
     18928      1161  MEOH      LP1A           12.8192925063        9.7377113164       -1.8559200102  MEOH      469             0.0000000000
     18929      1161  MEOH      LP1B           13.1101632205       10.2716313007       -1.6051755630  MEOH      469             0.0000000000
     18930      1162  MEOH      C1              2.3927071658        7.0238491308      -15.2074026293  MEOH      470             0.0000000000
     18931      1162  MEOH      DC1             2.4033181821        7.0179657826      -15.2391590639  MEOH      470             0.0000000000
     18932      1162  MEOH      O1              3.2459378864        6.8712561500      -16.3468847194  MEOH      470             0.0000000000
     18933      1162  MEOH      DO1             3.2530246783        6.8559548376      -16.3696674438  MEOH      470             0.0000000000
     18934      1162  MEOH      HO1             3.4511310041        7.7757953261      -16.6307943237  MEOH      470             0.0000000000
     18935      1162  MEOH      HO2             3.9658761567        6.2928909046      -16.0500977076  MEOH      470             0.0000000000
     18936      1162  MEOH      H1A             2.1155928466        6.0270383452      -14.8025607907  MEOH      470             0.0000000000
     18937      1162  MEOH      H1B             1.4661288534        7.5680247874      -15.4896197200  MEOH      470             0.0000000000
     18938      1162  MEOH      H1C             2.9093741480        7.5965776489      -14.4078038087  MEOH      470             0.0000000000
     18939      1162  MEOH      LP1A            3.5802958187        6.8548564382      -16.2447288454  MEOH      470             0.0000000000
     18940      1162  MEOH      LP1B            3.0535870383        6.8507240362      -16.6385687667  MEOH      470             0.0000000000
     18941      1163  MEOH      C1            -18.7434960460       10.6440671072       -3.1706747766  MEOH      471             0.0000000000
     18942      1163  MEOH      DC1           -18.7400972224       10.6487390798       -3.1800842105  MEOH      471             0.0000000000
     18943      1163  MEOH      O1            -17.6025797289       11.1668665325       -2.4857528760  MEOH      471             0.0000000000
     18944      1163  MEOH      DO1           -17.6053700846       11.1664069738       -2.4847118753  MEOH      471             0.0000000000
     18945      1163  MEOH      HO1           -17.1344675125       10.4183958427       -2.0838043967  MEOH      471             0.0000000000
     18946      1163  MEOH      HO2           -17.1439501687       11.7373519767       -3.1222316929  MEOH      471             0.0000000000
     18947      1163  MEOH      H1A           -19.3346705389       11.4817573945       -3.5985868050  MEOH      471             0.0000000000
     18948      1163  MEOH      H1B           -19.3843280704       10.0815729178       -2.4584559870  MEOH      471             0.0000000000
     18949      1163  MEOH      H1C           -18.4266824686        9.9626166697       -3.9889506826  MEOH      471             0.0000000000
     18950      1163  MEOH      LP1A          -17.3287652930       11.1816367357       -2.7032557399  MEOH      471             0.0000000000
     18951      1163  MEOH      LP1B          -17.6882570481       11.2502587923       -2.1568073972  MEOH      471             0.0000000000
     18952      1164  MEOH      C1            -21.3696830212       12.5097902734       10.3019775008  MEOH      472             0.0000000000
     18953      1164  MEOH      DC1           -21.3776209429       12.5455874650       10.2921748953  MEOH      472             0.0000000000
     18954      1164  MEOH      O1            -21.8015723101       11.4715781086        9.4147041948  MEOH      472             0.0000000000
     18955      1164  MEOH      DO1           -21.7995481329       11.4933245969        9.3943727652  MEOH      472             0.0000000000
     18956      1164  MEOH      HO1           -21.8472593247       11.8304001675        8.5146711805  MEOH      472             0.0000000000
     18957      1164  MEOH      HO2           -21.2507959975       10.6975843489        9.6108651366  MEOH      472             0.0000000000
     18958      1164  MEOH      H1A           -21.5199637262       12.2037174309       11.3593592319  MEOH      472             0.0000000000
     18959      1164  MEOH      H1B           -21.9682063403       13.4294693491       10.1279624611  MEOH      472             0.0000000000
     18960      1164  MEOH      H1C           -20.2887129110       12.7301016141       10.1704954291  MEOH      472             0.0000000000
     18961      1164  MEOH      LP1A          -21.5249037737       11.2941536803        9.2943917134  MEOH      472             0.0000000000
     18962      1164  MEOH      LP1B          -22.1510311451       11.4681670006        9.3955499007  MEOH      472             0.0000000000
     18963      1165  MEOH      C1             -6.8450014845        4.0852312741       24.2725483402  MEOH      473             0.0000000000
     18964      1165  MEOH      DC1            -6.8400440817        4.0892073274       24.2693011910  MEOH      473             0.0000000000
     18965      1165  MEOH      O1             -6.5910421780        5.4011532907       23.7719173873  MEOH      473             0.0000000000
     18966      1165  MEOH      DO1            -6.5863266292        5.4109242772       23.7632680782  MEOH      473             0.0000000000
     18967      1165  MEOH      HO1            -7.2311072433        5.9794285090       24.2155551736  MEOH      473             0.0000000000
     18968      1165  MEOH      HO2            -5.6393876044        5.5513118400       23.8846382042  MEOH      473             0.0000000000
     18969      1165  MEOH      H1A            -6.1719886023        3.3414288434       23.7949160495  MEOH      473             0.0000000000
     18970      1165  MEOH      H1B            -7.8941256274        3.8062193791       24.0363029270  MEOH      473             0.0000000000
     18971      1165  MEOH      H1C            -6.6821008671        4.0379556395       25.3705234786  MEOH      473             0.0000000000
     18972      1165  MEOH      LP1A           -6.3505762312        5.5603429668       23.9702473534  MEOH      473             0.0000000000
     18973      1165  MEOH      LP1B           -6.7805649863        5.4580419900       23.4832224254  MEOH      473             0.0000000000
     18974      1166  MEOH      C1            -31.0638945347        9.6081773995       33.2548230892  MEOH      474             0.0000000000
     18975      1166  MEOH      DC1           -31.0684063029        9.6148120621       33.2547100477  MEOH      474             0.0000000000
     18976      1166  MEOH      O1            -29.8013087221        9.4791865839       32.5965837173  MEOH      474             0.0000000000
     18977      1166  MEOH      DO1           -29.8083156220        9.4859030758       32.5955229623  MEOH      474             0.0000000000
     18978      1166  MEOH      HO1           -29.2685060237       10.2633757434       32.8016901485  MEOH      474             0.0000000000
     18979      1166  MEOH      HO2           -29.4644846778        8.6062608449       32.8524161183  MEOH      474             0.0000000000
     18980      1166  MEOH      H1A           -31.6873017498        8.7167254994       33.0289958188  MEOH      474             0.0000000000
     18981      1166  MEOH      H1B           -31.5941086150       10.5161655263       32.8960033694  MEOH      474             0.0000000000
     18982      1166  MEOH      H1C           -30.9152499819        9.6709430471       34.3540438452  MEOH      474             0.0000000000
     18983      1166  MEOH      LP1A          -29.5748899077        9.3110151734       32.8038345248  MEOH      474             0.0000000000
     18984      1166  MEOH      LP1B          -29.8195790980        9.6156360540       32.2747953777  MEOH      474             0.0000000000
     18985      1167  MEOH      C1            -10.0659993862      -13.1390927045       18.4354207761  MEOH      475             0.0000000000
     18986      1167  MEOH      DC1           -10.0679146929      -13.1448487207       18.4334061708  MEOH      475             0.0000000000
     18987      1167  MEOH      O1            -11.4847439736      -13.2560412064       18.3486162825  MEOH      475             0.0000000000
     18988      1167  MEOH      DO1           -11.4885405940      -13.2624876386       18.3374596853  MEOH      475             0.0000000000
     18989      1167  MEOH      HO1           -11.8481629044      -12.5787003808       18.9402547600  MEOH      475             0.0000000000
     18990      1167  MEOH      HO2           -11.6924293311      -13.2522353940       17.4011183627  MEOH      475             0.0000000000
     18991      1167  MEOH      H1A            -9.5858708076      -13.9009148077       17.7847099096  MEOH      475             0.0000000000
     18992      1167  MEOH      H1B            -9.7215207428      -13.2746484620       19.4829321607  MEOH      475             0.0000000000
     18993      1167  MEOH      H1C            -9.7405469139      -12.1227192377       18.1265734572  MEOH      475             0.0000000000
     18994      1167  MEOH      LP1A          -11.6058133393      -13.0546274307       18.0892426145  MEOH      475             0.0000000000
     18995      1167  MEOH      LP1B          -11.6006681946      -13.4857057922       18.5859256861  MEOH      475             0.0000000000
     18996      1168  MEOH      C1            -27.1128528364       36.1035148654      -18.7236440947  MEOH      476             0.0000000000
     18997      1168  MEOH      DC1           -27.1176246914       36.1090758914      -18.7087915723  MEOH      476             0.0000000000
     18998      1168  MEOH      O1            -28.3373629354       35.4777080480      -19.1216928508  MEOH      476             0.0000000000
     18999      1168  MEOH      DO1           -28.3454563277       35.4872723918      -19.0976324399  MEOH      476             0.0000000000
     19000      1168  MEOH      HO1           -28.1257270651       34.7789144618      -19.7602833164  MEOH      476             0.0000000000
     19001      1168  MEOH      HO2           -28.8391586288       35.3030524795      -18.3101532557  MEOH      476             0.0000000000
     19002      1168  MEOH      H1A           -27.3299614544       37.0905289854      -18.2621378902  MEOH      476             0.0000000000
     19003      1168  MEOH      H1B           -26.4572911589       36.2655493646      -19.6058598895  MEOH      476             0.0000000000
     19004      1168  MEOH      H1C           -26.5795972252       35.4661658097      -17.9862529948  MEOH      476             0.0000000000
     19005      1168  MEOH      LP1A          -28.4124076041       35.2130595295      -18.9052916970  MEOH      476             0.0000000000
     19006      1168  MEOH      LP1B          -28.4729512001       35.6447587828      -19.3977542108  MEOH      476             0.0000000000
     19007      1169  MEOH      C1            -10.1924195659       16.5842494958       31.9887823713  MEOH      477             0.0000000000
     19008      1169  MEOH      DC1           -10.1793394302       16.5952731699       31.9997145227  MEOH      477             0.0000000000
     19009      1169  MEOH      O1            -11.2890603001       16.0776141453       31.2280904227  MEOH      477             0.0000000000
     19010      1169  MEOH      DO1           -11.2852074464       16.0945532525       31.2245679481  MEOH      477             0.0000000000
     19011      1169  MEOH      HO1           -11.0720966443       15.1592308253       31.0035935414  MEOH      477             0.0000000000
     19012      1169  MEOH      HO2           -12.0735905029       16.2417852747       31.7744055350  MEOH      477             0.0000000000
     19013      1169  MEOH      H1A           -10.4319618765       17.6097818970       32.3426520876  MEOH      477             0.0000000000
     19014      1169  MEOH      H1B            -9.2732292569       16.6180471403       31.3656709085  MEOH      477             0.0000000000
     19015      1169  MEOH      H1C           -10.0234877871       15.9226245919       32.8651587417  MEOH      477             0.0000000000
     19016      1169  MEOH      LP1A          -11.5286968031       15.9382300582       31.4417406572  MEOH      477             0.0000000000
     19017      1169  MEOH      LP1B          -11.2386669680       16.1421568384       30.8878041420  MEOH      477             0.0000000000
     19018      1170  MEOH      C1             11.7383367871       33.4101869922      -12.0372637468  MEOH      478             0.0000000000
     19019      1170  MEOH      DC1            11.7616550917       33.4398768706      -12.0487850016  MEOH      478             0.0000000000
     19020      1170  MEOH      O1             12.3298939583       34.5121414266      -12.7352197244  MEOH      478             0.0000000000
     19021      1170  MEOH      DO1            12.3543320231       34.5336990752      -12.7436246611  MEOH      478             0.0000000000
     19022      1170  MEOH      HO1            12.0768679128       35.2986294002      -12.2269732411  MEOH      478             0.0000000000
     19023      1170  MEOH      HO2            13.2575525298       34.2735009320      -12.8881912566  MEOH      478             0.0000000000
     19024      1170  MEOH      H1A            11.8920492298       32.4700060880      -12.6088871825  MEOH      478             0.0000000000
     19025      1170  MEOH      H1B            10.6439151078       33.5663987854      -11.9269910639  MEOH      478             0.0000000000
     19026      1170  MEOH      H1C            12.1927463725       33.2777676892      -11.0321279067  MEOH      478             0.0000000000
     19027      1170  MEOH      LP1A           12.6534293307       34.5701976159      -12.6149935140  MEOH      478             0.0000000000
     19028      1170  MEOH      LP1B           12.1096243471       34.6310292323      -12.9798561650  MEOH      478             0.0000000000
     19029      1171  MEOH      C1             -0.0467477266       -8.9870860606        4.8615108119  MEOH      479             0.0000000000
     19030      1171  MEOH      DC1            -0.0471499031       -8.9756110676        4.8552625688  MEOH      479             0.0000000000
     19031      1171  MEOH      O1              1.2879081406       -9.2551764522        5.2744962045  MEOH      479             0.0000000000
     19032      1171  MEOH      DO1             1.2969162525       -9.2430473929        5.2709537823  MEOH      479             0.0000000000
     19033      1171  MEOH      HO1             1.7537787276       -8.4076192524        5.3487349366  MEOH      479             0.0000000000
     19034      1171  MEOH      HO2             1.1997361272       -9.8291559825        6.0514602934  MEOH      479             0.0000000000
     19035      1171  MEOH      H1A            -0.5755377583       -9.9625574973        4.8053184594  MEOH      479             0.0000000000
     19036      1171  MEOH      H1B            -0.0501895981       -8.5223902385        3.8523691235  MEOH      479             0.0000000000
     19037      1171  MEOH      H1C            -0.5653953491       -8.3317148922        5.5935041693  MEOH      479             0.0000000000
     19038      1171  MEOH      LP1A            1.3063959989       -9.2599828970        5.6239745260  MEOH      479             0.0000000000
     19039      1171  MEOH      LP1B            1.4917300759       -9.3067331092        4.9946774599  MEOH      479             0.0000000000
     19040      1172  MEOH      C1            -35.3374851629      -17.3959497591      -11.6334188410  MEOH      480             0.0000000000
     19041      1172  MEOH      DC1           -35.3610508926      -17.3766247312      -11.6162920004  MEOH      480             0.0000000000
     19042      1172  MEOH      O1            -34.5114037480      -18.0820775358      -12.5729996237  MEOH      480             0.0000000000
     19043      1172  MEOH      DO1           -34.5279998935      -18.0708736499      -12.5575710178  MEOH      480             0.0000000000
     19044      1172  MEOH      HO1           -34.3732522617      -18.9961366523      -12.2792138203  MEOH      480             0.0000000000
     19045      1172  MEOH      HO2           -34.8930822462      -17.9022943526      -13.4464408251  MEOH      480             0.0000000000
     19046      1172  MEOH      H1A           -35.4090939331      -16.3294346492      -11.9363028228  MEOH      480             0.0000000000
     19047      1172  MEOH      H1B           -34.8818967175      -17.4482503739      -10.6214777287  MEOH      480             0.0000000000
     19048      1172  MEOH      H1C           -36.3491839521      -17.8549102353      -11.6215091291  MEOH      480             0.0000000000
     19049      1172  MEOH      LP1A          -34.7092904190      -18.2288507690      -12.8215926314  MEOH      480             0.0000000000
     19050      1172  MEOH      LP1B          -34.1742742567      -18.0409124561      -12.4884470229  MEOH      480             0.0000000000
     19051      1173  MEOH      C1            -34.8767335454       35.5890111885      -31.5724161934  MEOH      481             0.0000000000
     19052      1173  MEOH      DC1           -34.8826773187       35.5938339993      -31.5681392997  MEOH      481             0.0000000000
     19053      1173  MEOH      O1            -34.8499457494       34.2461792842      -31.0865382324  MEOH      481             0.0000000000
     19054      1173  MEOH      DO1           -34.8560371699       34.2536286956      -31.0813379546  MEOH      481             0.0000000000
     19055      1173  MEOH      HO1           -34.8502631691       33.6492007662      -31.8510750523  MEOH      481             0.0000000000
     19056      1173  MEOH      HO2           -34.1103491082       34.2140313441      -30.4597501356  MEOH      481             0.0000000000
     19057      1173  MEOH      H1A           -34.9821573507       36.2751501845      -30.7049946699  MEOH      481             0.0000000000
     19058      1173  MEOH      H1B           -35.7341123890       35.7405605853      -32.2625287213  MEOH      481             0.0000000000
     19059      1173  MEOH      H1C           -33.9377755766       35.8277916968      -32.1161650347  MEOH      481             0.0000000000
     19060      1173  MEOH      LP1A          -34.5188858763       34.1406630116      -31.0445182766  MEOH      481             0.0000000000
     19061      1173  MEOH      LP1B          -35.1764410741       34.1305122907      -31.0363192164  MEOH      481             0.0000000000
     19062      1174  MEOH      C1             10.6876173272      -28.0433633528       35.6692304762  MEOH      482             0.0000000000
     19063      1174  MEOH      DC1            10.6906205844      -28.0470459278       35.6789000451  MEOH      482             0.0000000000
     19064      1174  MEOH      O1             10.5072285388      -27.2976544942       36.8762680029  MEOH      482             0.0000000000
     19065      1174  MEOH      DO1            10.5196431815      -27.2871383836       36.8773226776  MEOH      482             0.0000000000
     19066      1174  MEOH      HO1             9.5675304493      -27.3628391691       37.1078246052  MEOH      482             0.0000000000
     19067      1174  MEOH      HO2            11.1936794489      -27.6048802787       37.4888832700  MEOH      482             0.0000000000
     19068      1174  MEOH      H1A            11.7093033812      -27.8714691644       35.2680684202  MEOH      482             0.0000000000
     19069      1174  MEOH      H1B             9.9491019460      -27.7216516037       34.9041046154  MEOH      482             0.0000000000
     19070      1174  MEOH      H1C            10.5445663102      -29.1272574243       35.8667932499  MEOH      482             0.0000000000
     19071      1174  MEOH      LP1A           10.5599473697      -27.5043992306       37.1537159059  MEOH      482             0.0000000000
     19072      1174  MEOH      LP1B           10.4354925964      -26.9634715148       36.8009308218  MEOH      482             0.0000000000
     19073      1175  MEOH      C1            -33.5574372912       -0.6839179780       -4.5980231999  MEOH      483             0.0000000000
     19074      1175  MEOH      DC1           -33.5515219595       -0.6960010371       -4.5926482136  MEOH      483             0.0000000000
     19075      1175  MEOH      O1            -33.8394521885        0.0897062577       -5.7680336442  MEOH      483             0.0000000000
     19076      1175  MEOH      DO1           -33.8480189579        0.0746614341       -5.7679050312  MEOH      483             0.0000000000
     19077      1175  MEOH      HO1           -34.4276471304        0.8148039247       -5.5050505938  MEOH      483             0.0000000000
     19078      1175  MEOH      HO2           -32.9845368702        0.2796608284       -6.1850912655  MEOH      483             0.0000000000
     19079      1175  MEOH      H1A           -32.9453224680       -1.5671772108       -4.8799621503  MEOH      483             0.0000000000
     19080      1175  MEOH      H1B           -34.5035433401       -1.0372672875       -4.1350452201  MEOH      483             0.0000000000
     19081      1175  MEOH      H1C           -33.0079694262       -0.0605513336       -3.8605816132  MEOH      483             0.0000000000
     19082      1175  MEOH      LP1A          -33.5983143596        0.3404094348       -5.8067694735  MEOH      483             0.0000000000
     19083      1175  MEOH      LP1B          -34.1211966059       -0.0385750439       -5.9313247674  MEOH      483             0.0000000000
     19084      1176  MEOH      C1             -9.0865732994      -13.4042416330       33.7547232172  MEOH      484             0.0000000000
     19085      1176  MEOH      DC1            -9.0783984022      -13.4086232121       33.7565662042  MEOH      484             0.0000000000
     19086      1176  MEOH      O1             -9.7904005404      -12.3053533637       33.1724292950  MEOH      484             0.0000000000
     19087      1176  MEOH      DO1            -9.7821825377      -12.3136944905       33.1731462983  MEOH      484             0.0000000000
     19088      1176  MEOH      HO1           -10.1071130042      -11.7174175183       33.8759381135  MEOH      484             0.0000000000
     19089      1176  MEOH      HO2            -9.2073709193      -11.9590529275       32.4788498338  MEOH      484             0.0000000000
     19090      1176  MEOH      H1A            -8.7785490222      -14.0991727630       32.9444684614  MEOH      484             0.0000000000
     19091      1176  MEOH      H1B            -9.7415941849      -13.9594048194       34.4597497968  MEOH      484             0.0000000000
     19092      1176  MEOH      H1C            -8.1787619502      -13.0478485597       34.2868731321  MEOH      484             0.0000000000
     19093      1176  MEOH      LP1A           -9.5678944495      -12.0445593953       33.1018775722  MEOH      484             0.0000000000
     19094      1176  MEOH      LP1B          -10.1288401160      -12.3863121532       33.1349549294  MEOH      484             0.0000000000
     19095      1177  MEOH      C1             26.9201377915      -32.6444825251        6.8906701748  MEOH      485             0.0000000000
     19096      1177  MEOH      DC1            26.8812669458      -32.6511282743        6.8664530401  MEOH      485             0.0000000000
     19097      1177  MEOH      O1             25.9860057246      -31.9899560395        6.0315881779  MEOH      485             0.0000000000
     19098      1177  MEOH      DO1            25.9603170850      -31.9992559060        6.0133532647  MEOH      485             0.0000000000
     19099      1177  MEOH      HO1            25.2139725697      -31.8143421562        6.5919671316  MEOH      485             0.0000000000
     19100      1177  MEOH      HO2            26.4700476918      -31.2178164328        5.6993175000  MEOH      485             0.0000000000
     19101      1177  MEOH      H1A            27.9161693721      -32.7061169954        6.4023636288  MEOH      485             0.0000000000
     19102      1177  MEOH      H1B            26.5818426198      -33.6711090278        7.1474101224  MEOH      485             0.0000000000
     19103      1177  MEOH      H1C            27.0309919980      -32.0606810878        7.8293970936  MEOH      485             0.0000000000
     19104      1177  MEOH      LP1A           26.0385635305      -31.6440049948        6.0390414793  MEOH      485             0.0000000000
     19105      1177  MEOH      LP1B           25.7842908984      -32.2269230603        5.8714077797  MEOH      485             0.0000000000
     19106      1178  MEOH      C1             17.6030807744       13.0486591712      -15.3312878371  MEOH      486             0.0000000000
     19107      1178  MEOH      DC1            17.5941181112       13.0451545572      -15.3226728644  MEOH      486             0.0000000000
     19108      1178  MEOH      O1             18.8619785426       12.9731488982      -16.0012513384  MEOH      486             0.0000000000
     19109      1178  MEOH      DO1            18.8547553667       12.9646531579      -15.9990461860  MEOH      486             0.0000000000
     19110      1178  MEOH      HO1            19.5351156436       12.7257340276      -15.3481262929  MEOH      486             0.0000000000
     19111      1178  MEOH      HO2            18.7168665251       12.4545841543      -16.8080555957  MEOH      486             0.0000000000
     19112      1178  MEOH      H1A            16.8554833679       13.5205768804      -16.0041271908  MEOH      486             0.0000000000
     19113      1178  MEOH      H1B            17.7075134062       13.6624657488      -14.4111485477  MEOH      486             0.0000000000
     19114      1178  MEOH      H1C            17.2507083448       12.0297401671      -15.0630365860  MEOH      486             0.0000000000
     19115      1178  MEOH      LP1A           18.9112710515       12.6504222379      -16.1274169095  MEOH      486             0.0000000000
     19116      1178  MEOH      LP1B           19.0186536514       13.2860980603      -15.9972849540  MEOH      486             0.0000000000
     19117      1179  MEOH      C1            -25.3292531207        9.4734488444      -28.4381561705  MEOH      487             0.0000000000
     19118      1179  MEOH      DC1           -25.3379147129        9.4795161420      -28.4246659953  MEOH      487             0.0000000000
     19119      1179  MEOH      O1            -25.8027111443       10.5496309607      -27.6192866881  MEOH      487             0.0000000000
     19120      1179  MEOH      DO1           -25.8176422016       10.5519627860      -27.6119038987  MEOH      487             0.0000000000
     19121      1179  MEOH      HO1           -25.9755424336       11.2971640396      -28.2127710116  MEOH      487             0.0000000000
     19122      1179  MEOH      HO2           -26.5035894977       10.1823122032      -27.0582639932  MEOH      487             0.0000000000
     19123      1179  MEOH      H1A           -24.9857870896        8.6378707528      -27.7915022145  MEOH      487             0.0000000000
     19124      1179  MEOH      H1B           -24.4769279424        9.8197470410      -29.0610047472  MEOH      487             0.0000000000
     19125      1179  MEOH      H1C           -26.1296471212        9.0935799239      -29.1085217785  MEOH      487             0.0000000000
     19126      1179  MEOH      LP1A          -26.1508286963       10.5318253206      -27.5877093353  MEOH      487             0.0000000000
     19127      1179  MEOH      LP1B          -25.5327119918       10.7406182576      -27.5047253068  MEOH      487             0.0000000000
     19128      1180  MEOH      C1             35.5336363108       17.3746413696      -18.6136899228  MEOH      488             0.0000000000
     19129      1180  MEOH      DC1            35.5194435282       17.3641505862      -18.6035526777  MEOH      488             0.0000000000
     19130      1180  MEOH      O1             34.2714363686       16.7095971227      -18.6024198065  MEOH      488             0.0000000000
     19131      1180  MEOH      DO1            34.2525451659       16.6954331537      -18.5973479291  MEOH      488             0.0000000000
     19132      1180  MEOH      HO1            34.1774287450       16.3812771488      -19.5103121807  MEOH      488             0.0000000000
     19133      1180  MEOH      HO2            34.3045557257       16.1016608464      -17.8472929349  MEOH      488             0.0000000000
     19134      1180  MEOH      H1A            35.7410539898       17.8583811026      -17.6352755026  MEOH      488             0.0000000000
     19135      1180  MEOH      H1B            35.5561389106       18.1531851747      -19.4059551413  MEOH      488             0.0000000000
     19136      1180  MEOH      H1C            36.3201913540       16.6191825294      -18.8256665871  MEOH      488             0.0000000000
     19137      1180  MEOH      LP1A           34.3134213595       16.3746715998      -18.5098878949  MEOH      488             0.0000000000
     19138      1180  MEOH      LP1B           34.0163236264       16.9356225961      -18.6819809414  MEOH      488             0.0000000000
     19139      1181  MEOH      C1             19.7973241304      -32.5659987667       -4.3571839689  MEOH      489             0.0000000000
     19140      1181  MEOH      DC1            19.7970531921      -32.5673392236       -4.3622730291  MEOH      489             0.0000000000
     19141      1181  MEOH      O1             18.8069293545      -32.3783662398       -3.3476673648  MEOH      489             0.0000000000
     19142      1181  MEOH      DO1            18.8083067725      -32.3707108479       -3.3542051380  MEOH      489             0.0000000000
     19143      1181  MEOH      HO1            19.2523675842      -32.4389216446       -2.4881222372  MEOH      489             0.0000000000
     19144      1181  MEOH      HO2            18.3212702768      -31.5757199205       -3.5942320569  MEOH      489             0.0000000000
     19145      1181  MEOH      H1A            19.3001758754      -32.6005125905       -5.3501459064  MEOH      489             0.0000000000
     19146      1181  MEOH      H1B            20.3392707443      -33.5231662663       -4.2008342150  MEOH      489             0.0000000000
     19147      1181  MEOH      H1C            20.5207950410      -31.7228598626       -4.3519273635  MEOH      489             0.0000000000
     19148      1181  MEOH      LP1A           18.7752138689      -32.0379209847       -3.2728933300  MEOH      489             0.0000000000
     19149      1181  MEOH      LP1B           18.6644031839      -32.6860967171       -3.2611327241  MEOH      489             0.0000000000
     19150      1182  MEOH      C1             18.0275131786      -12.5727316659       -4.9119463941  MEOH      490             0.0000000000
     19151      1182  MEOH      DC1            18.0299616906      -12.5531592780       -4.9354997788  MEOH      490             0.0000000000
     19152      1182  MEOH      O1             17.7418606660      -11.5808436342       -5.9006631040  MEOH      490             0.0000000000
     19153      1182  MEOH      DO1            17.7474776421      -11.5590697373       -5.9202977888  MEOH      490             0.0000000000
     19154      1182  MEOH      HO1            17.1019099505      -10.9873055200       -5.4774898659  MEOH      490             0.0000000000
     19155      1182  MEOH      HO2            18.6003903182      -11.2564661551       -6.2146791661  MEOH      490             0.0000000000
     19156      1182  MEOH      H1A            18.6600558713      -13.3799112634       -5.3393476576  MEOH      490             0.0000000000
     19157      1182  MEOH      H1B            17.0830121646      -13.0288441334       -4.5456128692  MEOH      490             0.0000000000
     19158      1182  MEOH      H1C            18.5565735033      -12.1119455185       -4.0504986004  MEOH      490             0.0000000000
     19159      1182  MEOH      LP1A           17.9684363607      -11.3155170158       -5.8730001297  MEOH      490             0.0000000000
     19160      1182  MEOH      LP1B           17.4746659217      -11.6851945452       -6.1012070044  MEOH      490             0.0000000000
     19161      1183  MEOH      C1              1.6673413730       16.5572574267       12.2542956637  MEOH      491             0.0000000000
     19162      1183  MEOH      DC1             1.6616236957       16.5542532337       12.2458513319  MEOH      491             0.0000000000
     19163      1183  MEOH      O1              0.4756731940       17.1142105959       11.7025186306  MEOH      491             0.0000000000
     19164      1183  MEOH      DO1             0.4701413955       17.1227043179       11.7000994211  MEOH      491             0.0000000000
     19165      1183  MEOH      HO1             0.5411656219       17.0392268706       10.7376413416  MEOH      491             0.0000000000
     19166      1183  MEOH      HO2            -0.2564524148       16.6893268733       12.1761914248  MEOH      491             0.0000000000
     19167      1183  MEOH      H1A             1.6509337144       16.6366621636       13.3623329722  MEOH      491             0.0000000000
     19168      1183  MEOH      H1B             2.5528892200       17.1107014716       11.8750520748  MEOH      491             0.0000000000
     19169      1183  MEOH      H1C             1.7352011732       15.4838795249       11.9757711063  MEOH      491             0.0000000000
     19170      1183  MEOH      LP1A            0.2296565190       16.8668239730       11.6746680571  MEOH      491             0.0000000000
     19171      1183  MEOH      LP1B            0.5178716366       17.4574064955       11.6483349989  MEOH      491             0.0000000000
     19172      1184  MEOH      C1             36.3488494255       23.0145397114      -36.5974233349  MEOH      492             0.0000000000
     19173      1184  MEOH      DC1            36.3725410770       23.0085189716      -36.5831271039  MEOH      492             0.0000000000
     19174      1184  MEOH      O1             35.0509019959       22.8006558501      -37.1416780612  MEOH      492             0.0000000000
     19175      1184  MEOH      DO1            35.0732859877       22.7728056684      -37.1315876791  MEOH      492             0.0000000000
     19176      1184  MEOH      HO1            34.4609184886       22.4835678529      -36.4400551830  MEOH      492             0.0000000000
     19177      1184  MEOH      HO2            34.8245791648       23.6441258660      -37.5638584833  MEOH      492             0.0000000000
     19178      1184  MEOH      H1A            37.0271342235       23.4072394050      -37.3848480521  MEOH      492             0.0000000000
     19179      1184  MEOH      H1B            36.7561225378       22.0558629531      -36.2109152680  MEOH      492             0.0000000000
     19180      1184  MEOH      H1C            36.2858775285       23.7853637668      -35.7998107624  MEOH      492             0.0000000000
     19181      1184  MEOH      LP1A           34.8623363714       23.0947682823      -37.1206808611  MEOH      492             0.0000000000
     19182      1184  MEOH      LP1B           35.0249503134       22.4739475423      -37.2645120621  MEOH      492             0.0000000000
     19183      1185  MEOH      C1             20.7115702206       11.8312124027      -23.1124025610  MEOH      493             0.0000000000
     19184      1185  MEOH      DC1            20.7185512055       11.8369070617      -23.1144607957  MEOH      493             0.0000000000
     19185      1185  MEOH      O1             21.2166041744       10.6592160887      -22.4759908277  MEOH      493             0.0000000000
     19186      1185  MEOH      DO1            21.2264320636       10.6615404230      -22.4703762114  MEOH      493             0.0000000000
     19187      1185  MEOH      HO1            21.7461871267       10.1770159126      -23.1301505076  MEOH      493             0.0000000000
     19188      1185  MEOH      HO2            21.5815368462       10.9438484287      -21.6235187889  MEOH      493             0.0000000000
     19189      1185  MEOH      H1A            19.9198110054       12.2867922897      -22.4800377045  MEOH      493             0.0000000000
     19190      1185  MEOH      H1B            20.2747970006       11.5525784973      -24.0952114454  MEOH      493             0.0000000000
     19191      1185  MEOH      H1C            21.5293993706       12.5668277716      -23.2684362459  MEOH      493             0.0000000000
     19192      1185  MEOH      LP1A           21.5239701314       10.7287116940      -22.3236867590  MEOH      493             0.0000000000
     19193      1185  MEOH      LP1B           20.9887363782       10.3959672117      -22.5117161148  MEOH      493             0.0000000000
     19194      1186  MEOH      C1             22.8309266702       35.7973999653      -26.5495756112  MEOH      494             0.0000000000
     19195      1186  MEOH      DC1            22.8339636268       35.7978026866      -26.5441174399  MEOH      494             0.0000000000
     19196      1186  MEOH      O1             23.8542698774       35.9000540955      -27.5413337551  MEOH      494             0.0000000000
     19197      1186  MEOH      DO1            23.8580387089       35.8998644234      -27.5336127142  MEOH      494             0.0000000000
     19198      1186  MEOH      HO1            24.0085997618       35.0099421893      -27.8945802441  MEOH      494             0.0000000000
     19199      1186  MEOH      HO2            23.5573019475       36.6000955018      -28.1435397648  MEOH      494             0.0000000000
     19200      1186  MEOH      H1A            22.6363185124       36.7995711788      -26.1112817323  MEOH      494             0.0000000000
     19201      1186  MEOH      H1B            23.1463875775       35.1031218695      -25.7416255250  MEOH      494             0.0000000000
     19202      1186  MEOH      H1C            21.8944804095       35.4214691788      -27.0144040159  MEOH      494             0.0000000000
     19203      1186  MEOH      LP1A           23.7116909428       35.9661667367      -27.8540642558  MEOH      494             0.0000000000
     19204      1186  MEOH      LP1B           24.1690065417       35.8624492161      -27.3929197897  MEOH      494             0.0000000000
     19205      1187  MEOH      C1             10.9003892281      -14.3829342977       19.9906068921  MEOH      495             0.0000000000
     19206      1187  MEOH      DC1            10.9064819388      -14.3850338829       19.9819869050  MEOH      495             0.0000000000
     19207      1187  MEOH      O1             10.9008343581      -12.9888275735       19.7255012560  MEOH      495             0.0000000000
     19208      1187  MEOH      DO1            10.9008131006      -12.9815531068       19.7151652198  MEOH      495             0.0000000000
     19209      1187  MEOH      HO1            10.6877560930      -12.5724391869       20.5752767352  MEOH      495             0.0000000000
     19210      1187  MEOH      HO2            11.7590539093      -12.8189700769       19.3065649449  MEOH      495             0.0000000000
     19211      1187  MEOH      H1A            11.1404581683      -14.9485550741       19.0649930185  MEOH      495             0.0000000000
     19212      1187  MEOH      H1B             9.9046209713      -14.7106428834       20.3585384922  MEOH      495             0.0000000000
     19213      1187  MEOH      H1C            11.6605026083      -14.5921366211       20.7734114891  MEOH      495             0.0000000000
     19214      1187  MEOH      LP1A           11.2224008520      -12.8583985325       19.7711439473  MEOH      495             0.0000000000
     19215      1187  MEOH      LP1B           10.5819540527      -12.8861465398       19.6241505968  MEOH      495             0.0000000000
     19216      1188  MEOH      C1             -5.6805756108       12.0948881553        7.2502097738  MEOH      496             0.0000000000
     19217      1188  MEOH      DC1            -5.6722242274       12.1000611530        7.2406849702  MEOH      496             0.0000000000
     19218      1188  MEOH      O1             -4.9008369333       13.2463971224        6.9257118365  MEOH      496             0.0000000000
     19219      1188  MEOH      DO1            -4.8942886080       13.2510899145        6.9196932967  MEOH      496             0.0000000000
     19220      1188  MEOH      HO1            -4.8598999527       13.7770649928        7.7366469602  MEOH      496             0.0000000000
     19221      1188  MEOH      HO2            -4.0851349008       12.9078162643        6.5245968936  MEOH      496             0.0000000000
     19222      1188  MEOH      H1A            -5.8435506040       11.4759232272        6.3421114476  MEOH      496             0.0000000000
     19223      1188  MEOH      H1B            -6.6675566192       12.3985396968        7.6600697870  MEOH      496             0.0000000000
     19224      1188  MEOH      H1C            -5.1478827340       11.4781858503        8.0053505342  MEOH      496             0.0000000000
     19225      1188  MEOH      LP1A           -4.5618028774       13.1816044335        6.9836585049  MEOH      496             0.0000000000
     19226      1188  MEOH      LP1B           -5.1078613678       13.5003533018        6.8026381088  MEOH      496             0.0000000000
     19227      1189  MEOH      C1            -15.4580916981       11.2558407262       17.6752677309  MEOH      497             0.0000000000
     19228      1189  MEOH      DC1           -15.4452335062       11.2484040157       17.6843329472  MEOH      497             0.0000000000
     19229      1189  MEOH      O1            -16.5108103266       11.9766456954       17.0473169386  MEOH      497             0.0000000000
     19230      1189  MEOH      DO1           -16.5037120188       11.9648594873       17.0517709285  MEOH      497             0.0000000000
     19231      1189  MEOH      HO1           -16.3309242549       12.9206446133       17.1792527025  MEOH      497             0.0000000000
     19232      1189  MEOH      HO2           -16.5703854286       11.6146931866       16.1493519123  MEOH      497             0.0000000000
     19233      1189  MEOH      H1A           -15.6671921651       10.1656093301       17.6306191164  MEOH      497             0.0000000000
     19234      1189  MEOH      H1B           -15.3556566152       11.5746367396       18.7346058052  MEOH      497             0.0000000000
     19235      1189  MEOH      H1C           -14.5082979826       11.4574452766       17.1352968934  MEOH      497             0.0000000000
     19236      1189  MEOH      LP1A          -16.4301750703       12.0388499561       16.7124608719  MEOH      497             0.0000000000
     19237      1189  MEOH      LP1B          -16.7735471790       12.0259056376       17.2732434852  MEOH      497             0.0000000000
     19238      1190  MEOH      C1              9.3254664973       -0.1226302169       18.8961084181  MEOH      498             0.0000000000
     19239      1190  MEOH      DC1             9.3358570741       -0.1346768055       18.8896454034  MEOH      498             0.0000000000
     19240      1190  MEOH      O1             10.1448257498       -1.2929146338       18.9525231329  MEOH      498             0.0000000000
     19241      1190  MEOH      DO1            10.1572875735       -1.3011459574       18.9488303626  MEOH      498             0.0000000000
     19242      1190  MEOH      HO1            10.6263545879       -1.2419143263       19.7930164097  MEOH      498             0.0000000000
     19243      1190  MEOH      HO2             9.5440094910       -2.0376353198       18.7934290629  MEOH      498             0.0000000000
     19244      1190  MEOH      H1A             8.6965296519       -0.1294778950       17.9802959075  MEOH      498             0.0000000000
     19245      1190  MEOH      H1B             9.9661111594        0.7849606544       18.8829088985  MEOH      498             0.0000000000
     19246      1190  MEOH      H1C             8.6640273259       -0.0816212698       19.7878132407  MEOH      498             0.0000000000
     19247      1190  MEOH      LP1A            9.9680646769       -1.5557366278       19.1014530579  MEOH      498             0.0000000000
     19248      1190  MEOH      LP1B           10.4547508944       -1.2293854779       18.8028219269  MEOH      498             0.0000000000
     19249      1191  MEOH      C1             -0.1685731084       -0.2776376222      -19.8140508279  MEOH      499             0.0000000000
     19250      1191  MEOH      DC1            -0.1523506516       -0.2809158583      -19.8125034479  MEOH      499             0.0000000000
     19251      1191  MEOH      O1              0.0356136961        0.3304952337      -21.0808590810  MEOH      499             0.0000000000
     19252      1191  MEOH      DO1             0.0636792326        0.3244897941      -21.0848609615  MEOH      499             0.0000000000
     19253      1191  MEOH      HO1            -0.2602517799       -0.3208240024      -21.7359521076  MEOH      499             0.0000000000
     19254      1191  MEOH      HO2            -0.4540924468        1.1657399520      -21.0220870281  MEOH      499             0.0000000000
     19255      1191  MEOH      H1A            -0.0266762011        0.4716456372      -19.0061146517  MEOH      499             0.0000000000
     19256      1191  MEOH      H1B             0.5400609197       -1.1194932736      -19.6609564827  MEOH      499             0.0000000000
     19257      1191  MEOH      H1C            -1.2078019733       -0.6664476325      -19.7579157852  MEOH      499             0.0000000000
     19258      1191  MEOH      LP1A           -0.2485851083        0.5125999342      -21.1734275293  MEOH      499             0.0000000000
     19259      1191  MEOH      LP1B            0.3583420388        0.2603174488      -21.1967102586  MEOH      499             0.0000000000
     19260      1192  MEOH      C1             17.8968136185      -23.8905180555      -34.3208594781  MEOH      500             0.0000000000
     19261      1192  MEOH      DC1            17.8859817177      -23.8789354207      -34.3144253707  MEOH      500             0.0000000000
     19262      1192  MEOH      O1             18.8555832004      -24.6938546448      -33.6506125779  MEOH      500             0.0000000000
     19263      1192  MEOH      DO1            18.8417002125      -24.6851987963      -33.6509422737  MEOH      500             0.0000000000
     19264      1192  MEOH      HO1            18.7692973383      -24.5707706419      -32.6923302191  MEOH      500             0.0000000000
     19265      1192  MEOH      HO2            18.7672097277      -25.5754772553      -34.0453678211  MEOH      500             0.0000000000
     19266      1192  MEOH      H1A            18.0864547141      -23.9423446443      -35.4143270184  MEOH      500             0.0000000000
     19267      1192  MEOH      H1B            17.9836630232      -22.8254099960      -34.0170124720  MEOH      500             0.0000000000
     19268      1192  MEOH      H1C            16.8685512628      -24.2692940220      -34.1377576074  MEOH      500             0.0000000000
     19269      1192  MEOH      LP1A           18.7223049026      -25.0111288088      -33.5867846831  MEOH      500             0.0000000000
     19270      1192  MEOH      LP1B           19.1544532523      -24.5159648100      -33.6114730997  MEOH      500             0.0000000000
     19271      1193  MEOH      C1            -28.9312854380      -23.9169944483      -27.8387551576  MEOH      501             0.0000000000
     19272      1193  MEOH      DC1           -28.9252181255      -23.9068835628      -27.8429109414  MEOH      501             0.0000000000
     19273      1193  MEOH      O1            -28.7364731239      -22.5199402721      -27.6267526807  MEOH      501             0.0000000000
     19274      1193  MEOH      DO1           -28.7217117127      -22.5162298447      -27.6240359724  MEOH      501             0.0000000000
     19275      1193  MEOH      HO1           -28.6783817314      -22.1105005280      -28.5041832976  MEOH      501             0.0000000000
     19276      1193  MEOH      HO2           -29.4541913226      -22.2574259075      -27.0293693903  MEOH      501             0.0000000000
     19277      1193  MEOH      H1A           -28.9510835468      -24.4558697277      -26.8673940156  MEOH      501             0.0000000000
     19278      1193  MEOH      H1B           -28.1070492354      -24.3209025470      -28.4647055806  MEOH      501             0.0000000000
     19279      1193  MEOH      H1C           -29.9009911839      -24.0824555148      -28.3551023300  MEOH      501             0.0000000000
     19280      1193  MEOH      LP1A          -29.0459317071      -22.3580738181      -27.6036304769  MEOH      501             0.0000000000
     19281      1193  MEOH      LP1B          -28.3945643199      -22.4490086789      -27.6029392628  MEOH      501             0.0000000000
     19282      1194  MEOH      C1             12.9335049595      -21.6777968636       -7.3534813431  MEOH      502             0.0000000000
     19283      1194  MEOH      DC1            12.9559982370      -21.6814912019       -7.3592149453  MEOH      502             0.0000000000
     19284      1194  MEOH      O1             14.2968404546      -22.0557093306       -7.1683125767  MEOH      502             0.0000000000
     19285      1194  MEOH      DO1            14.3153699215      -22.0669031744       -7.1632246267  MEOH      502             0.0000000000
     19286      1194  MEOH      HO1            14.6780075328      -22.1300973385       -8.0571759432  MEOH      502             0.0000000000
     19287      1194  MEOH      HO2            14.6586012902      -21.4200380582       -6.5311696325  MEOH      502             0.0000000000
     19288      1194  MEOH      H1A            12.4340024820      -21.5875169799       -6.3652162883  MEOH      502             0.0000000000
     19289      1194  MEOH      H1B            12.3857312133      -22.4490450089       -7.9360971869  MEOH      502             0.0000000000
     19290      1194  MEOH      H1C            12.8717307787      -20.6993250584       -7.8760690192  MEOH      502             0.0000000000
     19291      1194  MEOH      LP1A           14.4969212270      -21.7702997129       -7.1365472710  MEOH      502             0.0000000000
     19292      1194  MEOH      LP1B           14.3239887460      -22.4044912954       -7.1576302864  MEOH      502             0.0000000000
     19293      1195  MEOH      C1            -32.9960137893       22.5124685564       12.1851715230  MEOH      503             0.0000000000
     19294      1195  MEOH      DC1           -33.0108865062       22.5193665635       12.1750488916  MEOH      503             0.0000000000
     19295      1195  MEOH      O1            -34.3771363888       22.4442187621       11.8175052250  MEOH      503             0.0000000000
     19296      1195  MEOH      DO1           -34.3837980510       22.4468215991       11.8103585315  MEOH      503             0.0000000000
     19297      1195  MEOH      HO1           -34.4232184460       22.0057132950       10.9535090449  MEOH      503             0.0000000000
     19298      1195  MEOH      HO2           -34.8292686839       22.0463288537       12.5778735636  MEOH      503             0.0000000000
     19299      1195  MEOH      H1A           -32.8916309439       23.0488194558       13.1525147580  MEOH      503             0.0000000000
     19300      1195  MEOH      H1B           -32.4175331672       23.0611973676       11.4114933832  MEOH      503             0.0000000000
     19301      1195  MEOH      H1C           -32.5748939494       21.4917715194       12.3082838288  MEOH      503             0.0000000000
     19302      1195  MEOH      LP1A          -34.5194829948       22.1493257690       11.9410995874  MEOH      503             0.0000000000
     19303      1195  MEOH      LP1B          -34.4687496587       22.7329558295       11.6421829085  MEOH      503             0.0000000000
     19304      1196  MEOH      C1            -22.9064225234       29.7544050081        5.5101108526  MEOH      504             0.0000000000
     19305      1196  MEOH      DC1           -22.9028118957       29.7781333403        5.5206734262  MEOH      504             0.0000000000
     19306      1196  MEOH      O1            -22.6650281796       30.2225163346        6.8342385383  MEOH      504             0.0000000000
     19307      1196  MEOH      DO1           -22.6699181811       30.2499843612        6.8425005174  MEOH      504             0.0000000000
     19308      1196  MEOH      HO1           -22.4747770347       29.4110118961        7.3303887658  MEOH      504             0.0000000000
     19309      1196  MEOH      HO2           -22.0130495487       30.9361642968        6.7534273290  MEOH      504             0.0000000000
     19310      1196  MEOH      H1A           -23.2001613838       30.5783932877        4.8252153883  MEOH      504             0.0000000000
     19311      1196  MEOH      H1B           -23.7554578416       29.0384596049        5.5398128762  MEOH      504             0.0000000000
     19312      1196  MEOH      H1C           -22.0102391833       29.2323616639        5.1118054818  MEOH      504             0.0000000000
     19313      1196  MEOH      LP1A          -22.3259386877       30.2995643827        6.8740118305  MEOH      504             0.0000000000
     19314      1196  MEOH      LP1B          -22.9654102771       30.2348978631        7.0134515212  MEOH      504             0.0000000000
     19315      1197  MEOH      C1             28.3920410989        7.6948651243       10.6830642828  MEOH      505             0.0000000000
     19316      1197  MEOH      DC1            28.3859090860        7.6979207179       10.6879160903  MEOH      505             0.0000000000
     19317      1197  MEOH      O1             29.1710761971        7.7331823263        9.4864613879  MEOH      505             0.0000000000
     19318      1197  MEOH      DO1            29.1673149654        7.7326224985        9.4925094735  MEOH      505             0.0000000000
     19319      1197  MEOH      HO1            28.6219828034        8.0991448209        8.7754987319  MEOH      505             0.0000000000
     19320      1197  MEOH      HO2            30.0109188681        8.1556437408        9.7253978673  MEOH      505             0.0000000000
     19321      1197  MEOH      H1A            28.9792353509        7.2088422093       11.4913375269  MEOH      505             0.0000000000
     19322      1197  MEOH      H1B            27.4678872986        7.1007042849       10.5180380721  MEOH      505             0.0000000000
     19323      1197  MEOH      H1C            28.1254434189        8.7279636891       10.9928287644  MEOH      505             0.0000000000
     19324      1197  MEOH      LP1A           29.3435419862        8.0370236451        9.4655806656  MEOH      505             0.0000000000
     19325      1197  MEOH      LP1B           29.1381169027        7.4313017482        9.3124447178  MEOH      505             0.0000000000
     19326      1198  MEOH      C1             28.7638822847      -11.7540365453      -22.5479357203  MEOH      506             0.0000000000
     19327      1198  MEOH      DC1            28.7589319644      -11.7648987117      -22.5419880135  MEOH      506             0.0000000000
     19328      1198  MEOH      O1             28.3573599559      -13.1272293766      -22.4654365490  MEOH      506             0.0000000000
     19329      1198  MEOH      DO1            28.3588069267      -13.1398774790      -22.4603034754  MEOH      506             0.0000000000
     19330      1198  MEOH      HO1            27.4131274057      -13.1291004348      -22.2433523525  MEOH      506             0.0000000000
     19331      1198  MEOH      HO2            28.6475411699      -13.5385878342      -23.2945801332  MEOH      506             0.0000000000
     19332      1198  MEOH      H1A            29.8371073449      -11.6729954355      -22.8235102313  MEOH      506             0.0000000000
     19333      1198  MEOH      H1B            28.6194854732      -11.2494118173      -21.5687399047  MEOH      506             0.0000000000
     19334      1198  MEOH      H1C            28.1828656723      -11.2250378925      -23.3333662529  MEOH      506             0.0000000000
     19335      1198  MEOH      LP1A           28.2534891585      -13.2404222614      -22.7799174360  MEOH      506             0.0000000000
     19336      1198  MEOH      LP1B           28.4040731402      -13.2465401668      -22.1397329817  MEOH      506             0.0000000000
     19337      1199  MEOH      C1             18.2668465942      -36.4157340915       14.1306824706  MEOH      507             0.0000000000
     19338      1199  MEOH      DC1            18.2601729743      -36.4057517385       14.1354867559  MEOH      507             0.0000000000
     19339      1199  MEOH      O1             19.6539997785      -36.5661336327       14.4115992147  MEOH      507             0.0000000000
     19340      1199  MEOH      DO1            19.6496277259      -36.5552566828       14.4195382294  MEOH      507             0.0000000000
     19341      1199  MEOH      HO1            19.9247623716      -37.3202321774       13.8648607004  MEOH      507             0.0000000000
     19342      1199  MEOH      HO2            20.0516196254      -35.6982517003       14.2396125583  MEOH      507             0.0000000000
     19343      1199  MEOH      H1A            17.8320008935      -35.5951936415       14.7405542497  MEOH      507             0.0000000000
     19344      1199  MEOH      H1B            17.7524613751      -37.3735396521       14.3594560585  MEOH      507             0.0000000000
     19345      1199  MEOH      H1C            18.1332209082      -36.2021757803       13.0486205383  MEOH      507             0.0000000000
     19346      1199  MEOH      LP1A           19.8426255537      -36.3694319018       14.1919887733  MEOH      507             0.0000000000
     19347      1199  MEOH      LP1B           19.6982097831      -36.7792379240       14.6857014520  MEOH      507             0.0000000000
     19348      1200  MEOH      C1             23.4158859735      -24.6364418825       12.8767137774  MEOH      508             0.0000000000
     19349      1200  MEOH      DC1            23.4067757280      -24.6166272438       12.8783159364  MEOH      508             0.0000000000
     19350      1200  MEOH      O1             24.4049319026      -25.6442617847       12.6552188550  MEOH      508             0.0000000000
     19351      1200  MEOH      DO1            24.3968048446      -25.6322484000       12.6482103707  MEOH      508             0.0000000000
     19352      1200  MEOH      HO1            25.2325392243      -25.3676205554       13.0788174282  MEOH      508             0.0000000000
     19353      1200  MEOH      HO2            23.9868192922      -26.4762022935       12.9271689169  MEOH      508             0.0000000000
     19354      1200  MEOH      H1A            22.4874972877      -24.9182398117       12.3354140674  MEOH      508             0.0000000000
     19355      1200  MEOH      H1B            23.7764865400      -23.6550011858       12.5011310433  MEOH      508             0.0000000000
     19356      1200  MEOH      H1C            23.1874622328      -24.5644012593       13.9615887679  MEOH      508             0.0000000000
     19357      1200  MEOH      LP1A           24.3923528516      -25.8826351283       12.9111874401  MEOH      508             0.0000000000
     19358      1200  MEOH      LP1B           24.5755314428      -25.5809069041       12.3562507029  MEOH      508             0.0000000000
     19359      1201  MEOH      C1            -15.7867393624       23.9757957641      -20.6957879424  MEOH      509             0.0000000000
     19360      1201  MEOH      DC1           -15.7802203566       23.9636874700      -20.7014166227  MEOH      509             0.0000000000
     19361      1201  MEOH      O1            -15.3512635694       25.1188491062      -21.4321506828  MEOH      509             0.0000000000
     19362      1201  MEOH      DO1           -15.3493251356       25.1093570218      -21.4578379420  MEOH      509             0.0000000000
     19363      1201  MEOH      HO1           -15.7552290455       25.8678795964      -20.9666775700  MEOH      509             0.0000000000
     19364      1201  MEOH      HO2           -14.3831752014       25.0588813312      -21.4425804305  MEOH      509             0.0000000000
     19365      1201  MEOH      H1A           -15.2439390229       23.0694855874      -21.0397220307  MEOH      509             0.0000000000
     19366      1201  MEOH      H1B           -16.8789500239       23.8251189391      -20.8325116271  MEOH      509             0.0000000000
     19367      1201  MEOH      H1C           -15.5853545827       24.1484980925      -19.6169278605  MEOH      509             0.0000000000
     19368      1201  MEOH      LP1A          -15.0465458151       25.2344722451      -21.3045639281  MEOH      509             0.0000000000
     19369      1201  MEOH      LP1B          -15.5771480606       25.1880708863      -21.6903841853  MEOH      509             0.0000000000
     19370      1202  MEOH      C1              7.9137152404       26.9776331280       24.2276887047  MEOH      510             0.0000000000
     19371      1202  MEOH      DC1             7.9122480881       26.9811113351       24.2328200909  MEOH      510             0.0000000000
     19372      1202  MEOH      O1              7.5005250379       28.3004638633       23.8840553592  MEOH      510             0.0000000000
     19373      1202  MEOH      DO1             7.4913690856       28.3071864544       23.8912183564  MEOH      510             0.0000000000
     19374      1202  MEOH      HO1             6.5346290864       28.2726717857       23.7993640769  MEOH      510             0.0000000000
     19375      1202  MEOH      HO2             7.9384799985       28.8962124713       24.5118921601  MEOH      510             0.0000000000
     19376      1202  MEOH      H1A             9.0202383203       26.9045793349       24.1599331196  MEOH      510             0.0000000000
     19377      1202  MEOH      H1B             7.4771377872       26.2362844295       23.5247497064  MEOH      510             0.0000000000
     19378      1202  MEOH      H1C             7.5816033970       26.7390091324       25.2606849835  MEOH      510             0.0000000000
     19379      1202  MEOH      LP1A            7.4412583369       28.4866014391       24.1744693069  MEOH      510             0.0000000000
     19380      1202  MEOH      LP1B            7.5014475640       28.3396114525       23.5362528071  MEOH      510             0.0000000000
     19381      1203  MEOH      C1            -19.1664746759       28.4556034368       -4.3654492826  MEOH      511             0.0000000000
     19382      1203  MEOH      DC1           -19.1560808740       28.4547245372       -4.3610961693  MEOH      511             0.0000000000
     19383      1203  MEOH      O1            -19.2791592703       27.0649868735       -4.6749743022  MEOH      511             0.0000000000
     19384      1203  MEOH      DO1           -19.2699612507       27.0622472651       -4.6801474549  MEOH      511             0.0000000000
     19385      1203  MEOH      HO1           -18.8709968613       26.5766746189       -3.9429534073  MEOH      511             0.0000000000
     19386      1203  MEOH      HO2           -20.2185352564       26.9227431373       -4.8705234683  MEOH      511             0.0000000000
     19387      1203  MEOH      H1A           -19.5770953347       29.0632022195       -5.2000362431  MEOH      511             0.0000000000
     19388      1203  MEOH      H1B           -18.1064300182       28.7446686538       -4.2009268708  MEOH      511             0.0000000000
     19389      1203  MEOH      H1C           -19.7543221408       28.6619566136       -3.4455717221  MEOH      511             0.0000000000
     19390      1203  MEOH      LP1A          -19.5813521826       26.9389322188       -4.5513229059  MEOH      511             0.0000000000
     19391      1203  MEOH      LP1B          -19.0011745456       26.9606926286       -4.8603042871  MEOH      511             0.0000000000
     19392      1204  MEOH      C1            -14.7505836978      -12.6055542621      -11.7842622490  MEOH      512             0.0000000000
     19393      1204  MEOH      DC1           -14.7517903612      -12.5879340044      -11.7778025022  MEOH      512             0.0000000000
     19394      1204  MEOH      O1            -13.4084201905      -12.4841987087      -12.2547834563  MEOH      512             0.0000000000
     19395      1204  MEOH      DO1           -13.4027453046      -12.4697897790      -12.2480431423  MEOH      512             0.0000000000
     19396      1204  MEOH      HO1           -13.2888713386      -13.2322035451      -12.8606686242  MEOH      512             0.0000000000
     19397      1204  MEOH      HO2           -13.3205397233      -11.5745123703      -12.5798185157  MEOH      512             0.0000000000
     19398      1204  MEOH      H1A           -14.9516210245      -11.8456778374      -10.9990916860  MEOH      512             0.0000000000
     19399      1204  MEOH      H1B           -14.9086190540      -13.6208920418      -11.3618465542  MEOH      512             0.0000000000
     19400      1204  MEOH      H1C           -15.4708307889      -12.4854837246      -12.6216081722  MEOH      512             0.0000000000
     19401      1204  MEOH      LP1A          -13.3997055109      -12.2833291270      -12.5412716158  MEOH      512             0.0000000000
     19402      1204  MEOH      LP1B          -13.1906224930      -12.6552968387      -12.0407984268  MEOH      512             0.0000000000
     19403      1205  MEOH      C1              5.3305811293       -5.3422020303      -27.7182180207  MEOH      513             0.0000000000
     19404      1205  MEOH      DC1             5.3192892864       -5.3578529762      -27.7029663150  MEOH      513             0.0000000000
     19405      1205  MEOH      O1              5.1339227793       -4.8016142501      -29.0269109295  MEOH      513             0.0000000000
     19406      1205  MEOH      DO1             5.1298180700       -4.8060157675      -29.0131728020  MEOH      513             0.0000000000
     19407      1205  MEOH      HO1             4.7124549939       -5.4668315820      -29.5932595924  MEOH      513             0.0000000000
     19408      1205  MEOH      HO2             4.7356038180       -3.9257758818      -28.9038290144  MEOH      513             0.0000000000
     19409      1205  MEOH      H1A             5.9912752389       -4.6633903804      -27.1376846124  MEOH      513             0.0000000000
     19410      1205  MEOH      H1B             5.8296195214       -6.3326838286      -27.7832371757  MEOH      513             0.0000000000
     19411      1205  MEOH      H1C             4.3526976370       -5.4267673020      -27.1977244158  MEOH      513             0.0000000000
     19412      1205  MEOH      LP1A            4.8236556937       -4.6406062861      -29.0445396309  MEOH      513             0.0000000000
     19413      1205  MEOH      LP1B            5.4159867177       -4.8621879458      -29.2250794488  MEOH      513             0.0000000000
     19414      1206  MEOH      C1             13.6550707770       -6.2944702684       -3.8429737494  MEOH      514             0.0000000000
     19415      1206  MEOH      DC1            13.6566859484       -6.3113098735       -3.8170981544  MEOH      514             0.0000000000
     19416      1206  MEOH      O1             12.5285521902       -6.8387075953       -3.1629571575  MEOH      514             0.0000000000
     19417      1206  MEOH      DO1            12.5236511648       -6.8496624693       -3.1386226904  MEOH      514             0.0000000000
     19418      1206  MEOH      HO1            11.8047919331       -6.7343719185       -3.8002837276  MEOH      514             0.0000000000
     19419      1206  MEOH      HO2            12.7954637969       -7.7311811596       -2.8924961958  MEOH      514             0.0000000000
     19420      1206  MEOH      H1A            14.5669385588       -6.3947346231       -3.2162639220  MEOH      514             0.0000000000
     19421      1206  MEOH      H1B            13.4752306848       -5.2243410306       -4.0813053614  MEOH      514             0.0000000000
     19422      1206  MEOH      H1C            13.8053012792       -6.8440130553       -4.7967842768  MEOH      514             0.0000000000
     19423      1206  MEOH      LP1A           12.5047433218       -7.1820614978       -3.2265278693  MEOH      514             0.0000000000
     19424      1206  MEOH      LP1B           12.3695700974       -6.5891910154       -2.9759647231  MEOH      514             0.0000000000
     19425      1207  MEOH      C1             10.6296062116       35.8908764049       20.2370800720  MEOH      515             0.0000000000
     19426      1207  MEOH      DC1            10.6085994248       35.9160972803       20.2343624444  MEOH      515             0.0000000000
     19427      1207  MEOH      O1             10.3404270909       37.1989537114       19.7527296015  MEOH      515             0.0000000000
     19428      1207  MEOH      DO1            10.3139927786       37.2224335992       19.7489630043  MEOH      515             0.0000000000
     19429      1207  MEOH      HO1            10.6243521432       37.1958004657       18.8252186195  MEOH      515             0.0000000000
     19430      1207  MEOH      HO2             9.4331522057       37.4100255661       20.0232863539  MEOH      515             0.0000000000
     19431      1207  MEOH      H1A            10.5491606408       35.8678066932       21.3449236076  MEOH      515             0.0000000000
     19432      1207  MEOH      H1B            11.6635880005       35.6045963701       19.9485555465  MEOH      515             0.0000000000
     19433      1207  MEOH      H1C             9.9182948216       35.1596120533       19.7970692124  MEOH      515             0.0000000000
     19434      1207  MEOH      LP1A           10.0144471535       37.2102563464       19.6258070626  MEOH      515             0.0000000000
     19435      1207  MEOH      LP1B           10.6136889671       37.4104023260       19.8085635551  MEOH      515             0.0000000000
     19436      1208  MEOH      C1              0.7041259347        8.3272971940        8.3116652771  MEOH      516             0.0000000000
     19437      1208  MEOH      DC1             0.7182006878        8.3204166377        8.3093865030  MEOH      516             0.0000000000
     19438      1208  MEOH      O1              2.0709656855        8.7323730567        8.1912333696  MEOH      516             0.0000000000
     19439      1208  MEOH      DO1             2.0916445751        8.7247818819        8.1866614868  MEOH      516             0.0000000000
     19440      1208  MEOH      HO1             2.0805335322        9.6596369968        8.4758208636  MEOH      516             0.0000000000
     19441      1208  MEOH      HO2             2.6063350419        8.0540934963        8.6319333703  MEOH      516             0.0000000000
     19442      1208  MEOH      H1A             0.5624006195        7.3218821466        7.8606935275  MEOH      516             0.0000000000
     19443      1208  MEOH      H1B             0.0391075999        9.0537711423        7.7975571005  MEOH      516             0.0000000000
     19444      1208  MEOH      H1C             0.4162949554        8.2983320127        9.3843419971  MEOH      516             0.0000000000
     19445      1208  MEOH      LP1A            2.2423440830        8.6654027763        8.4889655083  MEOH      516             0.0000000000
     19446      1208  MEOH      LP1B            2.1310983677        8.8566379935        7.8696089209  MEOH      516             0.0000000000
     19447      1209  MEOH      C1            -26.6934715208      -26.4786755106       13.8333080576  MEOH      517             0.0000000000
     19448      1209  MEOH      DC1           -26.7085873800      -26.4837458050       13.8473825226  MEOH      517             0.0000000000
     19449      1209  MEOH      O1            -27.3124723105      -27.1374887147       14.9276519169  MEOH      517             0.0000000000
     19450      1209  MEOH      DO1           -27.3227426146      -27.1326438647       14.9413700956  MEOH      517             0.0000000000
     19451      1209  MEOH      HO1           -27.8904974168      -27.8132401586       14.5401638993  MEOH      517             0.0000000000
     19452      1209  MEOH      HO2           -26.5793512863      -27.3999719194       15.5060429016  MEOH      517             0.0000000000
     19453      1209  MEOH      H1A           -26.0310275137      -25.6761891565       14.2225439638  MEOH      517             0.0000000000
     19454      1209  MEOH      H1B           -27.4502044186      -26.0249990595       13.1581384497  MEOH      517             0.0000000000
     19455      1209  MEOH      H1C           -26.0777146337      -27.1959592388       13.2496399078  MEOH      517             0.0000000000
     19456      1209  MEOH      LP1A          -27.1146976907      -27.4063878724       15.0329060986  MEOH      517             0.0000000000
     19457      1209  MEOH      LP1B          -27.6089706825      -26.9729175593       15.0142836098  MEOH      517             0.0000000000
     19458      1210  MEOH      C1             14.9884828966       -4.9431910658      -22.5589719050  MEOH      518             0.0000000000
     19459      1210  MEOH      DC1            15.0044499448       -4.9406613809      -22.5408914067  MEOH      518             0.0000000000
     19460      1210  MEOH      O1             14.1978595073       -5.5473625797      -21.5349011530  MEOH      518             0.0000000000
     19461      1210  MEOH      DO1            14.2000190268       -5.5383157936      -21.5128512154  MEOH      518             0.0000000000
     19462      1210  MEOH      HO1            13.4029181591       -5.8545265844      -21.9981705435  MEOH      518             0.0000000000
     19463      1210  MEOH      HO2            14.7831739504       -6.1904695365      -21.1051099887  MEOH      518             0.0000000000
     19464      1210  MEOH      H1A            15.9383022481       -4.5421444113      -22.1450567199  MEOH      518             0.0000000000
     19465      1210  MEOH      H1B            14.4140969158       -4.1155470946      -23.0273811314  MEOH      518             0.0000000000
     19466      1210  MEOH      H1C            15.2138116099       -5.7029219832      -23.3376611272  MEOH      518             0.0000000000
     19467      1210  MEOH      LP1A           14.2812082084       -5.8858237690      -21.5033255705  MEOH      518             0.0000000000
     19468      1210  MEOH      LP1B           13.9900423086       -5.3076826902      -21.3870310665  MEOH      518             0.0000000000
     19469      1211  MEOH      C1            -23.3587185832       18.3822949636       12.5298927684  MEOH      519             0.0000000000
     19470      1211  MEOH      DC1           -23.3581628526       18.3928559146       12.5196923492  MEOH      519             0.0000000000
     19471      1211  MEOH      O1            -22.0390060651       18.9097038270       12.3756512710  MEOH      519             0.0000000000
     19472      1211  MEOH      DO1           -22.0356135718       18.9196167329       12.3677624610  MEOH      519             0.0000000000
     19473      1211  MEOH      HO1           -22.1131339729       19.8703803363       12.2638223877  MEOH      519             0.0000000000
     19474      1211  MEOH      HO2           -21.5230164884       18.5406217472       13.1094313301  MEOH      519             0.0000000000
     19475      1211  MEOH      H1A           -23.3289738687       17.2772038879       12.6403914849  MEOH      519             0.0000000000
     19476      1211  MEOH      H1B           -23.9666104577       18.6380870907       11.6358240581  MEOH      519             0.0000000000
     19477      1211  MEOH      H1C           -23.8263692957       18.7978702370       13.4480000627  MEOH      519             0.0000000000
     19478      1211  MEOH      LP1A          -21.9040957716       18.9882053624       12.6889190824  MEOH      519             0.0000000000
     19479      1211  MEOH      LP1B          -21.9485521511       18.9089506181       12.0375425280  MEOH      519             0.0000000000
     19480      1212  MEOH      C1            -15.5447713983       26.0610729435      -12.5642226631  MEOH      520             0.0000000000
     19481      1212  MEOH      DC1           -15.5458167398       26.0377886569      -12.5605702278  MEOH      520             0.0000000000
     19482      1212  MEOH      O1            -15.2480401488       24.9044751510      -11.7820333438  MEOH      520             0.0000000000
     19483      1212  MEOH      DO1           -15.2448962592       24.8870985702      -11.7809460094  MEOH      520             0.0000000000
     19484      1212  MEOH      HO1           -14.5146862237       25.1618437215      -11.2016425789  MEOH      520             0.0000000000
     19485      1212  MEOH      HO2           -16.0932882953       24.6325684481      -11.3914922887  MEOH      520             0.0000000000
     19486      1212  MEOH      H1A           -16.3252832942       25.8329668058      -13.3212495915  MEOH      520             0.0000000000
     19487      1212  MEOH      H1B           -14.6261069418       26.4139300815      -13.0798470012  MEOH      520             0.0000000000
     19488      1212  MEOH      H1C           -15.9261431924       26.8753068686      -11.9116127716  MEOH      520             0.0000000000
     19489      1212  MEOH      LP1A          -15.4425621298       24.9036053158      -11.4910686685  MEOH      520             0.0000000000
     19490      1212  MEOH      LP1B          -15.0120944563       24.7055851032      -11.9471768545  MEOH      520             0.0000000000
     19491      1213  MEOH      C1             33.1698916712       30.9224187858       -5.1100813554  MEOH      521             0.0000000000
     19492      1213  MEOH      DC1            33.1722247450       30.9240516865       -5.1009751681  MEOH      521             0.0000000000
     19493      1213  MEOH      O1             32.9054020221       31.2333699400       -3.7378172727  MEOH      521             0.0000000000
     19494      1213  MEOH      DO1            32.9062196780       31.2324037043       -3.7283974523  MEOH      521             0.0000000000
     19495      1213  MEOH      HO1            32.7987368890       32.1958088483       -3.6809499068  MEOH      521             0.0000000000
     19496      1213  MEOH      HO2            32.1989930141       30.6330447904       -3.4523421784  MEOH      521             0.0000000000
     19497      1213  MEOH      H1A            33.4033296285       29.8415759479       -5.2178147290  MEOH      521             0.0000000000
     19498      1213  MEOH      H1B            34.0310635815       31.5201212105       -5.4781244975  MEOH      521             0.0000000000
     19499      1213  MEOH      H1C            32.2799496695       31.1508168828       -5.7347080786  MEOH      521             0.0000000000
     19500      1213  MEOH      LP1A           32.5610159882       31.2212797495       -3.6765629913  MEOH      521             0.0000000000
     19501      1213  MEOH      LP1B           33.2062314200       31.2863104011       -3.5669401797  MEOH      521             0.0000000000
     19502      1214  MEOH      C1             22.7318319447      -28.5000535722       -1.8089017015  MEOH      522             0.0000000000
     19503      1214  MEOH      DC1            22.7276938640      -28.4908494510       -1.8171796051  MEOH      522             0.0000000000
     19504      1214  MEOH      O1             21.8410962124      -28.5799720217       -0.6921883459  MEOH      522             0.0000000000
     19505      1214  MEOH      DO1            21.8404391101      -28.5797065825       -0.7004342897  MEOH      522             0.0000000000
     19506      1214  MEOH      HO1            22.3655106263      -28.8280849300        0.0851979848  MEOH      522             0.0000000000
     19507      1214  MEOH      HO2            21.3385330996      -27.7503157213       -0.6913270672  MEOH      522             0.0000000000
     19508      1214  MEOH      H1A            22.1533191346      -28.2773082708       -2.7308715825  MEOH      522             0.0000000000
     19509      1214  MEOH      H1B            23.2798215138      -29.4560090864       -1.9509491835  MEOH      522             0.0000000000
     19510      1214  MEOH      H1C            23.4928503517      -27.7088953865       -1.6379025502  MEOH      522             0.0000000000
     19511      1214  MEOH      LP1A           21.8156229009      -28.2674056252       -0.5367748389  MEOH      522             0.0000000000
     19512      1214  MEOH      LP1B           21.7087236447      -28.9030347605       -0.6675312962  MEOH      522             0.0000000000
     19513      1215  MEOH      C1             22.2347438459        3.6018068320      -33.6182909331  MEOH      523             0.0000000000
     19514      1215  MEOH      DC1            22.2428773317        3.6032776821      -33.6110246012  MEOH      523             0.0000000000
     19515      1215  MEOH      O1             21.8200558220        2.3491828360      -33.0643873143  MEOH      523             0.0000000000
     19516      1215  MEOH      DO1            21.8213009128        2.3448541464      -33.0609447775  MEOH      523             0.0000000000
     19517      1215  MEOH      HO1            22.0237685140        2.3545081036      -32.1160346465  MEOH      523             0.0000000000
     19518      1215  MEOH      HO2            20.9153373726        2.1985523806      -33.3801324540  MEOH      523             0.0000000000
     19519      1215  MEOH      H1A            22.1034888571        3.5755586093      -34.7211980727  MEOH      523             0.0000000000
     19520      1215  MEOH      H1B            23.3035564612        3.7999235564      -33.3887035673  MEOH      523             0.0000000000
     19521      1215  MEOH      H1C            21.6200416863        4.4289824207      -33.2032694867  MEOH      523             0.0000000000
     19522      1215  MEOH      LP1A           21.4865274623        2.3689424406      -32.9601357373  MEOH      523             0.0000000000
     19523      1215  MEOH      LP1B           22.0805722829        2.1164813139      -33.0863230204  MEOH      523             0.0000000000
     19524      1216  MEOH      C1              3.0206250939      -22.3733644499      -17.5874388999  MEOH      524             0.0000000000
     19525      1216  MEOH      DC1             3.0282815753      -22.3846771683      -17.5615317644  MEOH      524             0.0000000000
     19526      1216  MEOH      O1              3.3378605043      -22.6552454478      -16.2305783264  MEOH      524             0.0000000000
     19527      1216  MEOH      DO1             3.3493317094      -22.6671656384      -16.2192825131  MEOH      524             0.0000000000
     19528      1216  MEOH      HO1             2.4941498429      -22.7228211976      -15.7567789610  MEOH      524             0.0000000000
     19529      1216  MEOH      HO2             3.9692145096      -23.3915599976      -16.2421110528  MEOH      524             0.0000000000
     19530      1216  MEOH      H1A             3.9445783579      -22.1357862873      -18.1568139811  MEOH      524             0.0000000000
     19531      1216  MEOH      H1B             2.3363630201      -21.5000823671      -17.6464712492  MEOH      524             0.0000000000
     19532      1216  MEOH      H1C             2.5262066162      -23.2513654348      -18.0553979164  MEOH      524             0.0000000000
     19533      1216  MEOH      LP1A            3.3597466350      -23.0011854098      -16.1821372282  MEOH      524             0.0000000000
     19534      1216  MEOH      LP1B            3.3805821988      -22.3566194983      -16.0531032603  MEOH      524             0.0000000000
     19535      1217  MEOH      C1             23.6336461695       17.8800341474       -3.6141350863  MEOH      525             0.0000000000
     19536      1217  MEOH      DC1            23.6299040795       17.8777366131       -3.6169075080  MEOH      525             0.0000000000
     19537      1217  MEOH      O1             22.4460917551       18.4285786567       -3.0363883093  MEOH      525             0.0000000000
     19538      1217  MEOH      DO1            22.4484239907       18.4329338592       -3.0301101719  MEOH      525             0.0000000000
     19539      1217  MEOH      HO1            21.9277607678       18.8292424315       -3.7517214678  MEOH      525             0.0000000000
     19540      1217  MEOH      HO2            22.0594006715       17.7162415989       -2.5035225458  MEOH      525             0.0000000000
     19541      1217  MEOH      H1A            24.2859863895       17.4838356444       -2.8067937797  MEOH      525             0.0000000000
     19542      1217  MEOH      H1B            24.1893967694       18.6650278038       -4.1702351051  MEOH      525             0.0000000000
     19543      1217  MEOH      H1C            23.3736969511       17.0476902782       -4.3025761421  MEOH      525             0.0000000000
     19544      1217  MEOH      LP1A           22.1931181188       18.1867737717       -3.0304945058  MEOH      525             0.0000000000
     19545      1217  MEOH      LP1B           22.5036406617       18.7586491248       -2.9351874721  MEOH      525             0.0000000000
     19546      1218  MEOH      C1            -32.4273008632       -8.8483883436       35.4103329891  MEOH      526             0.0000000000
     19547      1218  MEOH      DC1           -32.4327172840       -8.8471162715       35.4165863699  MEOH      526             0.0000000000
     19548      1218  MEOH      O1            -31.6806544452       -8.1377105143       36.4020321783  MEOH      526             0.0000000000
     19549      1218  MEOH      DO1           -31.6892224374       -8.1395497250       36.4118956024  MEOH      526             0.0000000000
     19550      1218  MEOH      HO1           -30.7512408309       -8.1608251607       36.1253445430  MEOH      526             0.0000000000
     19551      1218  MEOH      HO2           -32.1284737927       -7.2834813851       36.5052330834  MEOH      526             0.0000000000
     19552      1218  MEOH      H1A           -33.4928761433       -8.9087994746       35.7189116986  MEOH      526             0.0000000000
     19553      1218  MEOH      H1B           -32.0252164117       -9.8775014241       35.2938196277  MEOH      526             0.0000000000
     19554      1218  MEOH      H1C           -32.3651774517       -8.3203244077       34.4348279090  MEOH      526             0.0000000000
     19555      1218  MEOH      LP1A          -31.6660341276       -7.7977578060       36.3200663171  MEOH      526             0.0000000000
     19556      1218  MEOH      LP1B          -31.5799792750       -8.3566943166       36.6558246219  MEOH      526             0.0000000000
     19557      1219  MEOH      C1             22.3196607664      -11.7887486806        5.4940779573  MEOH      527             0.0000000000
     19558      1219  MEOH      DC1            22.3071129513      -11.7686659352        5.4914866715  MEOH      527             0.0000000000
     19559      1219  MEOH      O1             22.8263783747      -13.0061261855        4.9634499265  MEOH      527             0.0000000000
     19560      1219  MEOH      DO1            22.8155131848      -12.9954701786        4.9609728561  MEOH      527             0.0000000000
     19561      1219  MEOH      HO1            22.5443516189      -13.1099938720        4.0411850986  MEOH      527             0.0000000000
     19562      1219  MEOH      HO2            23.7699938817      -13.0242520640        5.1874169534  MEOH      527             0.0000000000
     19563      1219  MEOH      H1A            22.6007112486      -11.7347193377        6.5675827114  MEOH      527             0.0000000000
     19564      1219  MEOH      H1B            21.2123920512      -11.7753772581        5.4040879722  MEOH      527             0.0000000000
     19565      1219  MEOH      H1C            22.7718885123      -10.9305381007        4.9525194030  MEOH      527             0.0000000000
     19566      1219  MEOH      LP1A           23.1426619650      -12.9531339600        4.8232482340  MEOH      527             0.0000000000
     19567      1219  MEOH      LP1B           22.6004926259      -13.2664516553        5.0243291366  MEOH      527             0.0000000000
     19568      1220  MEOH      C1             15.1479418475        1.8010173742       24.8777808877  MEOH      528             0.0000000000
     19569      1220  MEOH      DC1            15.1571187939        1.8037239031       24.8872430456  MEOH      528             0.0000000000
     19570      1220  MEOH      O1             16.1013727960        2.8636991690       24.9383761574  MEOH      528             0.0000000000
     19571      1220  MEOH      DO1            16.1100134026        2.8584231192       24.9424113075  MEOH      528             0.0000000000
     19572      1220  MEOH      HO1            15.6119411902        3.6860162100       25.0969680463  MEOH      528             0.0000000000
     19573      1220  MEOH      HO2            16.8015775896        2.5721585806       25.5430391486  MEOH      528             0.0000000000
     19574      1220  MEOH      H1A            15.6456692590        0.8573026022       24.5679569811  MEOH      528             0.0000000000
     19575      1220  MEOH      H1B            14.3697998191        2.0425349131       24.1224761388  MEOH      528             0.0000000000
     19576      1220  MEOH      H1C            14.6731916089        1.6474168989       25.8704238777  MEOH      528             0.0000000000
     19577      1220  MEOH      LP1A           16.2150149854        2.9039738805       25.2669540027  MEOH      528             0.0000000000
     19578      1220  MEOH      LP1B           16.1559585545        2.9939552192       24.6181360033  MEOH      528             0.0000000000
     19579      1221  MEOH      C1             23.8676299649       12.5461118946       35.1219772339  MEOH      529             0.0000000000
     19580      1221  MEOH      DC1            23.8698012511       12.5514130943       35.1249191142  MEOH      529             0.0000000000
     19581      1221  MEOH      O1             23.3725301979       11.4749448748       35.9287806997  MEOH      529             0.0000000000
     19582      1221  MEOH      DO1            23.3732078823       11.4781727805       35.9281586145  MEOH      529             0.0000000000
     19583      1221  MEOH      HO1            22.5832353772       11.7880708828       36.3976791846  MEOH      529             0.0000000000
     19584      1221  MEOH      HO2            23.3116897638       10.7077407676       35.3383602560  MEOH      529             0.0000000000
     19585      1221  MEOH      H1A            24.8096734521       12.2232818029       34.6293761782  MEOH      529             0.0000000000
     19586      1221  MEOH      H1B            24.0781766166       13.4373948216       35.7509492945  MEOH      529             0.0000000000
     19587      1221  MEOH      H1C            23.1263534981       12.8076642347       34.3368526744  MEOH      529             0.0000000000
     19588      1221  MEOH      LP1A           23.1468481359       11.2808425858       35.7446831486  MEOH      529             0.0000000000
     19589      1221  MEOH      LP1B           23.5238175755       11.4829121902       36.2442940136  MEOH      529             0.0000000000
     19590      1222  MEOH      C1            -33.3249453430       -0.2789089777       20.8120112988  MEOH      530             0.0000000000
     19591      1222  MEOH      DC1           -33.3302424779       -0.2907906409       20.7953561027  MEOH      530             0.0000000000
     19592      1222  MEOH      O1            -32.0008896994       -0.0089892120       20.3445243804  MEOH      530             0.0000000000
     19593      1222  MEOH      DO1           -32.0083814537       -0.0194746747       20.3309467212  MEOH      530             0.0000000000
     19594      1222  MEOH      HO1           -31.5314973636        0.4059363919       21.0850698405  MEOH      530             0.0000000000
     19595      1222  MEOH      HO2           -31.6682675111       -0.8357633680       19.9615009139  MEOH      530             0.0000000000
     19596      1222  MEOH      H1A           -33.9413164998       -0.6672399281       19.9731986426  MEOH      530             0.0000000000
     19597      1222  MEOH      H1B           -33.7799224920        0.6577302929       21.1993401917  MEOH      530             0.0000000000
     19598      1222  MEOH      H1C           -33.3044955741       -1.0335842818       21.6270990195  MEOH      530             0.0000000000
     19599      1222  MEOH      LP1A          -31.7941378530       -0.2849224307       20.4046453654  MEOH      530             0.0000000000
     19600      1222  MEOH      LP1B          -31.9886384738        0.3076549346       20.1959094690  MEOH      530             0.0000000000
     19601      1223  MEOH      C1            -30.1238801015       13.2300710995        1.5884733793  MEOH      531             0.0000000000
     19602      1223  MEOH      DC1           -30.1046764246       13.2264379365        1.5884468015  MEOH      531             0.0000000000
     19603      1223  MEOH      O1            -29.9000885764       14.5063381592        0.9912160926  MEOH      531             0.0000000000
     19604      1223  MEOH      DO1           -29.8726682555       14.4969248422        0.9870571368  MEOH      531             0.0000000000
     19605      1223  MEOH      HO1           -30.4537114146       14.5488110480        0.1958559184  MEOH      531             0.0000000000
     19606      1223  MEOH      HO2           -30.1231900688       15.1449468244        1.6864172856  MEOH      531             0.0000000000
     19607      1223  MEOH      H1A           -29.6807325885       13.2231086260        2.6072436223  MEOH      531             0.0000000000
     19608      1223  MEOH      H1B           -29.6594548435       12.4366615472        0.9646693535  MEOH      531             0.0000000000
     19609      1223  MEOH      H1C           -31.2117518250       13.0244603221        1.6811034039  MEOH      531             0.0000000000
     19610      1223  MEOH      LP1A          -30.1235639423       14.7411315390        1.1232419601  MEOH      531             0.0000000000
     19611      1223  MEOH      LP1B          -29.6316563143       14.4883250042        0.7673419162  MEOH      531             0.0000000000
     19612      1224  MEOH      C1             -6.7051504837       13.2969163158      -29.8731042783  MEOH      532             0.0000000000
     19613      1224  MEOH      DC1            -6.7013560457       13.3253740359      -29.8811949773  MEOH      532             0.0000000000
     19614      1224  MEOH      O1             -6.2282653052       14.6351286691      -30.0441894950  MEOH      532             0.0000000000
     19615      1224  MEOH      DO1            -6.2417037241       14.6656701044      -30.0522332855  MEOH      532             0.0000000000
     19616      1224  MEOH      HO1            -5.5970233483       14.7643637118      -29.3191157777  MEOH      532             0.0000000000
     19617      1224  MEOH      HO2            -5.8995003757       14.6674698243      -30.9562024727  MEOH      532             0.0000000000
     19618      1224  MEOH      H1A            -7.4424472642       13.0472151367      -30.6657982797  MEOH      532             0.0000000000
     19619      1224  MEOH      H1B            -7.1914494148       13.1769725107      -28.8814148949  MEOH      532             0.0000000000
     19620      1224  MEOH      H1C            -5.8684658975       12.5682073376      -29.9302280979  MEOH      532             0.0000000000
     19621      1224  MEOH      LP1A           -5.9487597821       14.6365920871      -30.2548421023  MEOH      532             0.0000000000
     19622      1224  MEOH      LP1B           -6.4347036348       14.8587861524      -29.8713874515  MEOH      532             0.0000000000
     19623      1225  MEOH      C1             31.2773555902       -6.2187975019       -5.6886094010  MEOH      533             0.0000000000
     19624      1225  MEOH      DC1            31.2786668327       -6.2316152556       -5.6946181512  MEOH      533             0.0000000000
     19625      1225  MEOH      O1             32.6980533835       -6.2071054925       -5.8509615533  MEOH      533             0.0000000000
     19626      1225  MEOH      DO1            32.7031494717       -6.2170106804       -5.8549137908  MEOH      533             0.0000000000
     19627      1225  MEOH      HO1            32.9465555212       -7.0163322512       -6.3245634332  MEOH      533             0.0000000000
     19628      1225  MEOH      HO2            32.9143992399       -5.3374088172       -6.2220709225  MEOH      533             0.0000000000
     19629      1225  MEOH      H1A            30.9694720120       -5.3384812978       -5.0848113510  MEOH      533             0.0000000000
     19630      1225  MEOH      H1B            30.9572550880       -7.1430955857       -5.1617985029  MEOH      533             0.0000000000
     19631      1225  MEOH      H1C            30.7778876308       -6.1637295592       -6.6794778480  MEOH      533             0.0000000000
     19632      1225  MEOH      LP1A           32.7831912563       -6.0437341631       -6.1485541462  MEOH      533             0.0000000000
     19633      1225  MEOH      LP1B           32.8513153607       -6.3584393908       -5.5750832874  MEOH      533             0.0000000000
     19634      1226  MEOH      C1            -12.5735985670        7.9611871142       12.3490986900  MEOH      534             0.0000000000
     19635      1226  MEOH      DC1           -12.5564595270        7.9741751760       12.3481121713  MEOH      534             0.0000000000
     19636      1226  MEOH      O1            -13.9651896846        7.9974683241       12.6491920178  MEOH      534             0.0000000000
     19637      1226  MEOH      DO1           -13.9496722619        8.0228719534       12.6473654391  MEOH      534             0.0000000000
     19638      1226  MEOH      HO1           -14.1521153636        7.7079148416       13.5558990109  MEOH      534             0.0000000000
     19639      1226  MEOH      HO2           -14.3763717726        8.7457961028       12.1889368417  MEOH      534             0.0000000000
     19640      1226  MEOH      H1A           -12.4282940566        7.8976081194       11.2494781595  MEOH      534             0.0000000000
     19641      1226  MEOH      H1B           -12.1132951254        7.0635380378       12.8145746584  MEOH      534             0.0000000000
     19642      1226  MEOH      H1C           -12.0890602842        8.8819823969       12.7385594735  MEOH      534             0.0000000000
     19643      1226  MEOH      LP1A          -14.0524634407        8.3124148891       12.7744595424  MEOH      534             0.0000000000
     19644      1226  MEOH      LP1B          -14.1140609372        7.6924417510       12.5637745731  MEOH      534             0.0000000000
     19645      1227  MEOH      C1            -33.2891279923       31.2118250670       25.7310125219  MEOH      535             0.0000000000
     19646      1227  MEOH      DC1           -33.2811336240       31.2075675754       25.7242553236  MEOH      535             0.0000000000
     19647      1227  MEOH      O1            -34.6876103218       31.1415775679       26.0111280005  MEOH      535             0.0000000000
     19648      1227  MEOH      DO1           -34.6734051291       31.1392558182       26.0065558062  MEOH      535             0.0000000000
     19649      1227  MEOH      HO1           -35.1046279834       30.4561840675       25.4659381075  MEOH      535             0.0000000000
     19650      1227  MEOH      HO2           -34.7708211084       31.1259459656       26.9774258939  MEOH      535             0.0000000000
     19651      1227  MEOH      H1A           -32.8520620080       32.0802207474       26.2687701530  MEOH      535             0.0000000000
     19652      1227  MEOH      H1B           -33.1218793233       31.3442830508       24.6406897409  MEOH      535             0.0000000000
     19653      1227  MEOH      H1C           -32.7856169457       30.2882753466       26.0885786554  MEOH      535             0.0000000000
     19654      1227  MEOH      LP1A          -34.7460239394       30.9174661445       26.2735435473  MEOH      535             0.0000000000
     19655      1227  MEOH      LP1B          -34.8625442312       31.3623475245       25.8033811507  MEOH      535             0.0000000000
     19656      1228  MEOH      C1             -7.0445158867      -31.4580116749       35.7469119807  MEOH      536             0.0000000000
     19657      1228  MEOH      DC1            -7.0308084557      -31.4638029253       35.7480678296  MEOH      536             0.0000000000
     19658      1228  MEOH      O1             -7.5671988879      -30.4866139090       36.6651569239  MEOH      536             0.0000000000
     19659      1228  MEOH      DO1            -7.5577924630      -30.4956215300       36.6775488299  MEOH      536             0.0000000000
     19660      1228  MEOH      HO1            -7.5043100344      -29.5981352534       36.2810336745  MEOH      536             0.0000000000
     19661      1228  MEOH      HO2            -8.3851510320      -30.8536939480       37.0354359208  MEOH      536             0.0000000000
     19662      1228  MEOH      H1A            -7.3037472945      -32.4982582181       36.0384719354  MEOH      536             0.0000000000
     19663      1228  MEOH      H1B            -5.9361313282      -31.3865006096       35.7206281844  MEOH      536             0.0000000000
     19664      1228  MEOH      H1C            -7.4860917571      -31.2925507575       34.7409525196  MEOH      536             0.0000000000
     19665      1228  MEOH      LP1A           -7.9109243377      -30.4457386070       36.6133686543  MEOH      536             0.0000000000
     19666      1228  MEOH      LP1B           -7.3129800490      -30.3738092645       36.8776372620  MEOH      536             0.0000000000
     19667      1229  MEOH      C1             20.7159969622       13.5263818275       24.4152782615  MEOH      537             0.0000000000
     19668      1229  MEOH      DC1            20.7290322946       13.5464051851       24.4136496547  MEOH      537             0.0000000000
     19669      1229  MEOH      O1             21.9176588187       13.0027616950       23.8674721161  MEOH      537             0.0000000000
     19670      1229  MEOH      DO1            21.9263730061       13.0221945037       23.8478242899  MEOH      537             0.0000000000
     19671      1229  MEOH      HO1            21.6498368130       12.3454245153       23.2063524543  MEOH      537             0.0000000000
     19672      1229  MEOH      HO2            22.4963478349       13.7582181577       23.6795770508  MEOH      537             0.0000000000
     19673      1229  MEOH      H1A            20.9251292918       14.0336244276       25.3813474174  MEOH      537             0.0000000000
     19674      1229  MEOH      H1B            20.0164063111       12.6861721785       24.6126146915  MEOH      537             0.0000000000
     19675      1229  MEOH      H1C            20.2415510457       14.2363651752       23.7045422204  MEOH      537             0.0000000000
     19676      1229  MEOH      LP1A           22.0185157114       13.1959557419       23.5936036304  MEOH      537             0.0000000000
     19677      1229  MEOH      LP1B           22.0254329042       12.7281970648       24.0558839266  MEOH      537             0.0000000000
     19678      1230  MEOH      C1             -8.9072759239      -16.2387090123        4.5692171361  MEOH      538             0.0000000000
     19679      1230  MEOH      DC1            -8.9083737304      -16.2470585578        4.5705811792  MEOH      538             0.0000000000
     19680      1230  MEOH      O1             -8.9469936336      -14.8125528808        4.5418173716  MEOH      538             0.0000000000
     19681      1230  MEOH      DO1            -8.9493190263      -14.8214960179        4.5408595329  MEOH      538             0.0000000000
     19682      1230  MEOH      HO1            -9.8712868826      -14.5220757908        4.5887753367  MEOH      538             0.0000000000
     19683      1230  MEOH      HO2            -8.2997444308      -14.5150973451        5.2002159392  MEOH      538             0.0000000000
     19684      1230  MEOH      H1A            -7.8689423075      -16.5872900907        4.3830034588  MEOH      538             0.0000000000
     19685      1230  MEOH      H1B            -9.5817985048      -16.6515146806        3.7888763335  MEOH      538             0.0000000000
     19686      1230  MEOH      H1C            -9.2238218954      -16.6015646910        5.5704440864  MEOH      538             0.0000000000
     19687      1230  MEOH      LP1A           -8.9257750626      -14.6859308412        4.8674193239  MEOH      538             0.0000000000
     19688      1230  MEOH      LP1B           -8.9634192974      -14.6995914146        4.2109550064  MEOH      538             0.0000000000
     19689      1231  MEOH      C1              6.8464511005      -23.7481362538      -21.8425496928  MEOH      539             0.0000000000
     19690      1231  MEOH      DC1             6.8492271328      -23.7585059258      -21.8244216963  MEOH      539             0.0000000000
     19691      1231  MEOH      O1              6.2491891947      -22.6328821994      -21.1782391359  MEOH      539             0.0000000000
     19692      1231  MEOH      DO1             6.2620897536      -22.6445230369      -21.1542456794  MEOH      539             0.0000000000
     19693      1231  MEOH      HO1             5.6756676450      -22.1942641702      -21.8259946894  MEOH      539             0.0000000000
     19694      1231  MEOH      HO2             5.8785831242      -22.9769070839      -20.3504722489  MEOH      539             0.0000000000
     19695      1231  MEOH      H1A             7.6609936848      -24.1901035825      -21.2297640380  MEOH      539             0.0000000000
     19696      1231  MEOH      H1B             7.2991957502      -23.4239812453      -22.8039376554  MEOH      539             0.0000000000
     19697      1231  MEOH      H1C             6.0720512159      -24.5218934170      -22.0320903795  MEOH      539             0.0000000000
     19698      1231  MEOH      LP1A            5.9506831614      -22.7311440854      -21.0241652905  MEOH      539             0.0000000000
     19699      1231  MEOH      LP1B            6.4532645077      -22.3504735361      -21.2113844751  MEOH      539             0.0000000000
     19700      1232  MEOH      C1             29.8152524852       10.5131336530      -18.8610317722  MEOH      540             0.0000000000
     19701      1232  MEOH      DC1            29.8071713955       10.5164771450      -18.8569185945  MEOH      540             0.0000000000
     19702      1232  MEOH      O1             28.7489198303        9.9366106013      -19.6175687486  MEOH      540             0.0000000000
     19703      1232  MEOH      DO1            28.7411476456        9.9367530374      -19.6025562451  MEOH      540             0.0000000000
     19704      1232  MEOH      HO1            27.9400057263       10.4466192190      -19.4549366980  MEOH      540             0.0000000000
     19705      1232  MEOH      HO2            29.0874744232        9.8701418041      -20.5241351756  MEOH      540             0.0000000000
     19706      1232  MEOH      H1A            30.7421820685        9.9212769006      -19.0186012293  MEOH      540             0.0000000000
     19707      1232  MEOH      H1B            29.5620675575       10.5033315205      -17.7793098527  MEOH      540             0.0000000000
     19708      1232  MEOH      H1C            30.0045364752       11.5563826062      -19.1928814260  MEOH      540             0.0000000000
     19709      1232  MEOH      LP1A           28.7363685228       10.0811171957      -19.9360970972  MEOH      540             0.0000000000
     19710      1232  MEOH      LP1B           28.5900093621        9.6875613263      -19.4298937057  MEOH      540             0.0000000000
     19711      1233  MEOH      C1             -7.0213860145       -8.7476653790      -28.9663446344  MEOH      541             0.0000000000
     19712      1233  MEOH      DC1            -7.0241240451       -8.7559499034      -28.9633469439  MEOH      541             0.0000000000
     19713      1233  MEOH      O1             -6.4610764508       -7.5275700393      -29.4281021048  MEOH      541             0.0000000000
     19714      1233  MEOH      DO1            -6.4681884212       -7.5434385613      -29.4346834657  MEOH      541             0.0000000000
     19715      1233  MEOH      HO1            -5.7334229115       -7.6964420311      -30.0468933274  MEOH      541             0.0000000000
     19716      1233  MEOH      HO2            -7.1997894014       -6.9423762674      -29.6577788923  MEOH      541             0.0000000000
     19717      1233  MEOH      H1A            -7.7098252105       -8.5347133354      -28.1207537746  MEOH      541             0.0000000000
     19718      1233  MEOH      H1B            -6.2166616143       -9.4306111618      -28.6194661285  MEOH      541             0.0000000000
     19719      1233  MEOH      H1C            -7.6035895766       -9.2085073196      -29.7927735291  MEOH      541             0.0000000000
     19720      1233  MEOH      LP1A           -6.6302368623       -7.4190292329      -29.7146394472  MEOH      541             0.0000000000
     19721      1233  MEOH      LP1B           -6.2049263040       -7.4245004057      -29.2130120007  MEOH      541             0.0000000000
     19722      1234  MEOH      C1            -22.9929329769      -25.7779406750       21.6846568578  MEOH      542             0.0000000000
     19723      1234  MEOH      DC1           -22.9929290736      -25.7862589067       21.6808936116  MEOH      542             0.0000000000
     19724      1234  MEOH      O1            -22.1470099588      -24.8686149694       22.3727331577  MEOH      542             0.0000000000
     19725      1234  MEOH      DO1           -22.1455143193      -24.8842794434       22.3755539017  MEOH      542             0.0000000000
     19726      1234  MEOH      HO1           -21.5310444025      -24.4989901210       21.7209173047  MEOH      542             0.0000000000
     19727      1234  MEOH      HO2           -22.7562648803      -24.2683109560       22.8302739014  MEOH      542             0.0000000000
     19728      1234  MEOH      H1A           -23.7305225110      -26.2029004264       22.3985839471  MEOH      542             0.0000000000
     19729      1234  MEOH      H1B           -22.3950147534      -26.6032401733       21.2422819741  MEOH      542             0.0000000000
     19730      1234  MEOH      H1C           -23.5477565400      -25.2465827653       20.8820669337  MEOH      542             0.0000000000
     19731      1234  MEOH      LP1A          -22.2902312203      -24.5492616046       22.3737813108  MEOH      542             0.0000000000
     19732      1234  MEOH      LP1B          -21.8666559075      -25.0369322226       22.4975166028  MEOH      542             0.0000000000
     19733      1235  MEOH      C1             -3.8405406809        0.4642924642       -0.2385906146  MEOH      543             0.0000000000
     19734      1235  MEOH      DC1            -3.8374480960        0.4555439385       -0.2249434714  MEOH      543             0.0000000000
     19735      1235  MEOH      O1             -4.0992864804        1.7051774165       -0.8897831680  MEOH      543             0.0000000000
     19736      1235  MEOH      DO1            -4.0979093169        1.6958016262       -0.8832653593  MEOH      543             0.0000000000
     19737      1235  MEOH      HO1            -3.2485722998        2.1432856471       -1.0486748332  MEOH      543             0.0000000000
     19738      1235  MEOH      HO2            -4.6874620702        1.5005342888       -1.6334703781  MEOH      543             0.0000000000
     19739      1235  MEOH      H1A            -4.8012755364       -0.0100016495        0.0552709715  MEOH      543             0.0000000000
     19740      1235  MEOH      H1B            -3.2378891239        0.6490013356        0.6762944785  MEOH      543             0.0000000000
     19741      1235  MEOH      H1C            -3.2776373097       -0.2104785296       -0.9184030167  MEOH      543             0.0000000000
     19742      1235  MEOH      LP1A           -4.1046101807        1.6594631964       -1.2367440712  MEOH      543             0.0000000000
     19743      1235  MEOH      LP1B           -4.1486956534        1.9571587660       -0.6519510148  MEOH      543             0.0000000000
     19744      1236  MEOH      C1            -26.6867166344      -31.3821031564       30.0099339020  MEOH      544             0.0000000000
     19745      1236  MEOH      DC1           -26.6827499692      -31.3937193941       30.0259984761  MEOH      544             0.0000000000
     19746      1236  MEOH      O1            -28.0698424792      -31.1274250728       29.7501223830  MEOH      544             0.0000000000
     19747      1236  MEOH      DO1           -28.0640242170      -31.1370381340       29.7505817446  MEOH      544             0.0000000000
     19748      1236  MEOH      HO1           -28.5423284689      -31.0627247320       30.5947944235  MEOH      544             0.0000000000
     19749      1236  MEOH      HO2           -28.0879239706      -30.3784636955       29.1339812344  MEOH      544             0.0000000000
     19750      1236  MEOH      H1A           -26.1615728132      -31.5357145828       29.0430065535  MEOH      544             0.0000000000
     19751      1236  MEOH      H1B           -26.5709573439      -32.2960747741       30.6308821032  MEOH      544             0.0000000000
     19752      1236  MEOH      H1C           -26.2278254300      -30.5090899585       30.5213904691  MEOH      544             0.0000000000
     19753      1236  MEOH      LP1A          -28.1264334877      -30.7825903670       29.7304632001  MEOH      544             0.0000000000
     19754      1236  MEOH      LP1B          -28.2426893560      -31.4297338230       29.7150029194  MEOH      544             0.0000000000
     19755      1237  MEOH      C1             14.1697424517       18.8401260229      -23.9211259295  MEOH      545             0.0000000000
     19756      1237  MEOH      DC1            14.1558471673       18.8552439241      -23.9267175643  MEOH      545             0.0000000000
     19757      1237  MEOH      O1             13.0560938413       18.1793179533      -23.3199107840  MEOH      545             0.0000000000
     19758      1237  MEOH      DO1            13.0495358054       18.1893190180      -23.3280979614  MEOH      545             0.0000000000
     19759      1237  MEOH      HO1            12.3136223887       18.7969920737      -23.2298284709  MEOH      545             0.0000000000
     19760      1237  MEOH      HO2            12.9719478683       17.3161530451      -23.7543826449  MEOH      545             0.0000000000
     19761      1237  MEOH      H1A            15.0820830947       18.2251354426      -23.7670410884  MEOH      545             0.0000000000
     19762      1237  MEOH      H1B            14.3511930467       19.8178781679      -23.4257498860  MEOH      545             0.0000000000
     19763      1237  MEOH      H1C            14.0190961888       18.9478135245      -25.0165847867  MEOH      545             0.0000000000
     19764      1237  MEOH      LP1A           12.8569110796       18.0316298743      -23.5669218338  MEOH      545             0.0000000000
     19765      1237  MEOH      LP1B           13.0746230735       18.2064862911      -22.9714591389  MEOH      545             0.0000000000
     19766      1238  MEOH      C1             22.5593082542       -7.0168591196       -6.9408648096  MEOH      546             0.0000000000
     19767      1238  MEOH      DC1            22.5441920502       -7.0296170425       -6.9469544399  MEOH      546             0.0000000000
     19768      1238  MEOH      O1             22.1594278405       -7.9301722324       -5.9211176011  MEOH      546             0.0000000000
     19769      1238  MEOH      DO1            22.1465785324       -7.9458788436       -5.9297099616  MEOH      546             0.0000000000
     19770      1238  MEOH      HO1            22.4354421773       -8.8126606430       -6.2142562910  MEOH      546             0.0000000000
     19771      1238  MEOH      HO2            22.5751072458       -7.5817141468       -5.1169487168  MEOH      546             0.0000000000
     19772      1238  MEOH      H1A            22.4122323087       -5.9707293660       -6.5969139339  MEOH      546             0.0000000000
     19773      1238  MEOH      H1B            21.9617673829       -7.1744145505       -7.8641427714  MEOH      546             0.0000000000
     19774      1238  MEOH      H1C            23.6391081574       -7.1580824465       -7.1608855848  MEOH      546             0.0000000000
     19775      1238  MEOH      LP1A           22.4134045675       -7.9617278510       -5.6823707371  MEOH      546             0.0000000000
     19776      1238  MEOH      LP1B           21.8339485434       -8.0432360383       -5.9825977035  MEOH      546             0.0000000000
     19777      1239  MEOH      C1            -12.4431664861       -8.2147913272      -32.2659796855  MEOH      547             0.0000000000
     19778      1239  MEOH      DC1           -12.4459675724       -8.2245882028      -32.2650469674  MEOH      547             0.0000000000
     19779      1239  MEOH      O1            -13.7784035653       -7.7650871635      -32.0560173546  MEOH      547             0.0000000000
     19780      1239  MEOH      DO1           -13.7802638068       -7.7723586487      -32.0523264918  MEOH      547             0.0000000000
     19781      1239  MEOH      HO1           -13.7266908013       -6.8602565778      -31.7103189296  MEOH      547             0.0000000000
     19782      1239  MEOH      HO2           -14.2581664563       -7.9473980757      -32.8791153443  MEOH      547             0.0000000000
     19783      1239  MEOH      H1A           -12.4684890446       -9.2726903472      -32.6044016579  MEOH      547             0.0000000000
     19784      1239  MEOH      H1B           -11.8645356147       -8.1468584722      -31.3199921363  MEOH      547             0.0000000000
     19785      1239  MEOH      H1C           -11.9543352863       -7.5945578210      -33.0474369501  MEOH      547             0.0000000000
     19786      1239  MEOH      LP1A          -13.9012076103       -7.6145881793      -32.3471688998  MEOH      547             0.0000000000
     19787      1239  MEOH      LP1B          -13.8840010470       -7.8500918548      -31.7333358176  MEOH      547             0.0000000000
     19788      1240  MEOH      C1             36.8268077615      -16.6165864684        7.3918068730  MEOH      548             0.0000000000
     19789      1240  MEOH      DC1            36.8252684496      -16.6182821708        7.3882445976  MEOH      548             0.0000000000
     19790      1240  MEOH      O1             36.5344977028      -18.0142510862        7.4357692200  MEOH      548             0.0000000000
     19791      1240  MEOH      DO1            36.5306669542      -18.0162091573        7.4291689308  MEOH      548             0.0000000000
     19792      1240  MEOH      HO1            37.3626307451      -18.4918205810        7.2713823537  MEOH      548             0.0000000000
     19793      1240  MEOH      HO2            36.0465574375      -18.1532437971        8.2625069810  MEOH      548             0.0000000000
     19794      1240  MEOH      H1A            35.8887278817      -16.0386980456        7.5345377748  MEOH      548             0.0000000000
     19795      1240  MEOH      H1B            37.2663006999      -16.3550721551        6.4055121802  MEOH      548             0.0000000000
     19796      1240  MEOH      H1C            37.5401643696      -16.3466497861        8.1996295880  MEOH      548             0.0000000000
     19797      1240  MEOH      LP1A           36.5669072995      -18.1330795315        7.7633809088  MEOH      548             0.0000000000
     19798      1240  MEOH      LP1B           36.4420764736      -18.1272822371        7.1176776053  MEOH      548             0.0000000000
     19799      1241  MEOH      C1             28.4484245408        3.0057841707      -29.1624482743  MEOH      549             0.0000000000
     19800      1241  MEOH      DC1            28.4344938017        2.9946750119      -29.1559635994  MEOH      549             0.0000000000
     19801      1241  MEOH      O1             27.6907339810        4.1906086374      -29.3513692375  MEOH      549             0.0000000000
     19802      1241  MEOH      DO1            27.6834553756        4.1832390846      -29.3391824675  MEOH      549             0.0000000000
     19803      1241  MEOH      HO1            27.2626196213        4.4192636607      -28.5115270044  MEOH      549             0.0000000000
     19804      1241  MEOH      HO2            28.2992787544        4.8211085866      -29.7673536997  MEOH      549             0.0000000000
     19805      1241  MEOH      H1A            28.9365752878        2.7141978767      -30.1169152894  MEOH      549             0.0000000000
     19806      1241  MEOH      H1B            27.8021742391        2.1738223535      -28.8095728249  MEOH      549             0.0000000000
     19807      1241  MEOH      H1C            29.2320912969        3.2288976159      -28.4071948029  MEOH      549             0.0000000000
     19808      1241  MEOH      LP1A           27.8900194063        4.4714170979      -29.2886641518  MEOH      549             0.0000000000
     19809      1241  MEOH      LP1B           27.3669041544        4.1100551357      -29.4569409039  MEOH      549             0.0000000000
     19810      1242  MEOH      C1              7.6728395696       -1.3994196336      -17.7018462449  MEOH      550             0.0000000000
     19811      1242  MEOH      DC1             7.6779306590       -1.4098498554      -17.7055248374  MEOH      550             0.0000000000
     19812      1242  MEOH      O1              8.8664266611       -0.9620711907      -18.3577939015  MEOH      550             0.0000000000
     19813      1242  MEOH      DO1             8.8743356500       -0.9776921891      -18.3666463076  MEOH      550             0.0000000000
     19814      1242  MEOH      HO1             9.2522956565       -0.2712842397      -17.7967070038  MEOH      550             0.0000000000
     19815      1242  MEOH      HO2             9.3612378668       -1.7639746106      -18.5880389378  MEOH      550             0.0000000000
     19816      1242  MEOH      H1A             7.0881800618       -2.0686068023      -18.3686916491  MEOH      550             0.0000000000
     19817      1242  MEOH      H1B             7.0322798222       -0.5269105935      -17.4513823022  MEOH      550             0.0000000000
     19818      1242  MEOH      H1C             7.9105699357       -1.9548397273      -16.7694762576  MEOH      550             0.0000000000
     19819      1242  MEOH      LP1A            9.1380272572       -1.1573410202      -18.2548239549  MEOH      550             0.0000000000
     19820      1242  MEOH      LP1B            8.7926745953       -0.7010888762      -18.5790378039  MEOH      550             0.0000000000
     19821      1243  MEOH      C1            -28.8046949616       36.6486469292       27.2779320719  MEOH      551             0.0000000000
     19822      1243  MEOH      DC1           -28.8124056092       36.6425848315       27.2745896664  MEOH      551             0.0000000000
     19823      1243  MEOH      O1            -30.0491634698       36.9655607622       27.9078965584  MEOH      551             0.0000000000
     19824      1243  MEOH      DO1           -30.0551205648       36.9574426618       27.9016427527  MEOH      551             0.0000000000
     19825      1243  MEOH      HO1           -30.5187443974       37.5942384591       27.3376701947  MEOH      551             0.0000000000
     19826      1243  MEOH      HO2           -30.4500776635       36.1243322814       28.1771593548  MEOH      551             0.0000000000
     19827      1243  MEOH      H1A           -28.1600452800       36.0961240930       27.9944977046  MEOH      551             0.0000000000
     19828      1243  MEOH      H1B           -28.2772642829       37.5759071110       26.9675670690  MEOH      551             0.0000000000
     19829      1243  MEOH      H1C           -28.9729119307       35.9997532449       26.3919518025  MEOH      551             0.0000000000
     19830      1243  MEOH      LP1A          -30.2955753267       36.7382879153       27.8072573521  MEOH      551             0.0000000000
     19831      1243  MEOH      LP1B          -30.0084195689       37.2388801525       28.1226905188  MEOH      551             0.0000000000
     19832      1244  MEOH      C1             -1.1410155259      -20.6351292712        4.5949558000  MEOH      552             0.0000000000
     19833      1244  MEOH      DC1            -1.1541907290      -20.6388616202        4.5919523101  MEOH      552             0.0000000000
     19834      1244  MEOH      O1              0.1149607654      -20.4221079679        5.2248590816  MEOH      552             0.0000000000
     19835      1244  MEOH      DO1             0.1053534188      -20.4279556426        5.2183262154  MEOH      552             0.0000000000
     19836      1244  MEOH      HO1             0.8257048245      -20.5854157551        4.5852705818  MEOH      552             0.0000000000
     19837      1244  MEOH      HO2             0.0510385563      -19.5683222852        5.6807800834  MEOH      552             0.0000000000
     19838      1244  MEOH      H1A            -1.9387182408      -20.5811691963        5.3663698855  MEOH      552             0.0000000000
     19839      1244  MEOH      H1B            -1.1636403381      -21.6366240015        4.1145211805  MEOH      552             0.0000000000
     19840      1244  MEOH      H1C            -1.3163809416      -19.8451702209        3.8336853686  MEOH      552             0.0000000000
     19841      1244  MEOH      LP1A            0.2096389999      -20.0866930441        5.1927209295  MEOH      552             0.0000000000
     19842      1244  MEOH      LP1B            0.2265090863      -20.7189867308        5.3729130320  MEOH      552             0.0000000000
     19843      1245  MEOH      C1            -16.2599514137       25.5939760824       22.0328860940  MEOH      553             0.0000000000
     19844      1245  MEOH      DC1           -16.2638224872       25.5889719784       22.0238039683  MEOH      553             0.0000000000
     19845      1245  MEOH      O1            -17.4106706263       25.9114625405       22.8209436021  MEOH      553             0.0000000000
     19846      1245  MEOH      DO1           -17.4158615786       25.9037930131       22.8144633846  MEOH      553             0.0000000000
     19847      1245  MEOH      HO1           -17.8482117989       26.6828668107       22.4280146338  MEOH      553             0.0000000000
     19848      1245  MEOH      HO2           -17.8815494370       25.0770775767       22.9725182657  MEOH      553             0.0000000000
     19849      1245  MEOH      H1A           -15.6446034782       24.8378806439       22.5657909712  MEOH      553             0.0000000000
     19850      1245  MEOH      H1B           -15.6410024966       26.5038580255       21.8801180078  MEOH      553             0.0000000000
     19851      1245  MEOH      H1C           -16.5665970453       25.1779812277       21.0494036399  MEOH      553             0.0000000000
     19852      1245  MEOH      LP1A          -17.6888227656       25.7345425616       22.7033395696  MEOH      553             0.0000000000
     19853      1245  MEOH      LP1B          -17.3227435503       26.1327487268       23.0774611513  MEOH      553             0.0000000000
     19854      1246  MEOH      C1            -26.6552075022       -2.5820073042      -19.7643341244  MEOH      554             0.0000000000
     19855      1246  MEOH      DC1           -26.6695427362       -2.5846536208      -19.7464733461  MEOH      554             0.0000000000
     19856      1246  MEOH      O1            -28.0036306553       -2.3705367072      -20.1729277238  MEOH      554             0.0000000000
     19857      1246  MEOH      DO1           -28.0165038044       -2.3789856752      -20.1505645563  MEOH      554             0.0000000000
     19858      1246  MEOH      HO1           -27.9893527542       -1.5940651880      -20.7541231483  MEOH      554             0.0000000000
     19859      1246  MEOH      HO2           -28.2913340848       -3.2201112658      -20.5421834707  MEOH      554             0.0000000000
     19860      1246  MEOH      H1A           -26.5905076146       -3.5107128591      -19.1580001267  MEOH      554             0.0000000000
     19861      1246  MEOH      H1B           -26.2993896528       -1.7222961564      -19.1572003652  MEOH      554             0.0000000000
     19862      1246  MEOH      H1C           -26.0005041260       -2.6988295303      -20.6542987626  MEOH      554             0.0000000000
     19863      1246  MEOH      LP1A          -28.0704517897       -2.5528042192      -20.4641552809  MEOH      554             0.0000000000
     19864      1246  MEOH      LP1B          -28.1667021386       -2.1618060911      -19.9441500559  MEOH      554             0.0000000000
     19865      1247  MEOH      C1            -18.6535266525      -20.8807018881      -29.5357858928  MEOH      555             0.0000000000
     19866      1247  MEOH      DC1           -18.6606608378      -20.8722662197      -29.5359581914  MEOH      555             0.0000000000
     19867      1247  MEOH      O1            -17.3197725508      -20.9333666784      -30.0574645864  MEOH      555             0.0000000000
     19868      1247  MEOH      DO1           -17.3297520257      -20.9249128098      -30.0658478758  MEOH      555             0.0000000000
     19869      1247  MEOH      HO1           -16.7057409844      -20.6130916383      -29.3782818899  MEOH      555             0.0000000000
     19870      1247  MEOH      HO2           -17.2142979969      -21.8248090759      -30.4250316830  MEOH      555             0.0000000000
     19871      1247  MEOH      H1A           -19.3634199499      -21.2753275542      -30.2938380612  MEOH      555             0.0000000000
     19872      1247  MEOH      H1B           -18.9341742378      -19.8307060519      -29.3054238368  MEOH      555             0.0000000000
     19873      1247  MEOH      H1C           -18.7334281976      -21.5139535147      -28.6264294605  MEOH      555             0.0000000000
     19874      1247  MEOH      LP1A          -17.1775741250      -21.2462334249      -29.9911772827  MEOH      555             0.0000000000
     19875      1247  MEOH      LP1B          -17.2431970793      -20.6334454267      -30.2208152521  MEOH      555             0.0000000000
     19876      1248  MEOH      C1            -14.6749495173      -32.1057371673      -18.1464195313  MEOH      556             0.0000000000
     19877      1248  MEOH      DC1           -14.6754660472      -32.1096183747      -18.1460398542  MEOH      556             0.0000000000
     19878      1248  MEOH      O1            -13.5398494200      -32.7319905564      -18.7592582137  MEOH      556             0.0000000000
     19879      1248  MEOH      DO1           -13.5483830188      -32.7369832269      -18.7615377699  MEOH      556             0.0000000000
     19880      1248  MEOH      HO1           -12.7561881916      -32.6071714715      -18.2014094213  MEOH      556             0.0000000000
     19881      1248  MEOH      HO2           -13.8171916027      -33.6086207119      -19.0682903881  MEOH      556             0.0000000000
     19882      1248  MEOH      H1A           -15.5299765112      -32.1133918240      -18.8557792750  MEOH      556             0.0000000000
     19883      1248  MEOH      H1B           -14.4433088816      -31.0465298541      -17.9040489789  MEOH      556             0.0000000000
     19884      1248  MEOH      H1C           -14.9723392902      -32.6359482861      -17.2164966888  MEOH      556             0.0000000000
     19885      1248  MEOH      LP1A          -13.5169191175      -33.0656122750      -18.6559588905  MEOH      556             0.0000000000
     19886      1248  MEOH      LP1B          -13.3798564452      -32.5062959371      -18.9736508135  MEOH      556             0.0000000000
     19887      1249  MEOH      C1            -13.1839265085       24.6835586608       -4.7183800755  MEOH      557             0.0000000000
     19888      1249  MEOH      DC1           -13.1926697793       24.6829705015       -4.7150221047  MEOH      557             0.0000000000
     19889      1249  MEOH      O1            -13.6322594634       25.0859239161       -6.0172864669  MEOH      557             0.0000000000
     19890      1249  MEOH      DO1           -13.6379017748       25.0829178696       -6.0147141513  MEOH      557             0.0000000000
     19891      1249  MEOH      HO1           -14.5915650551       24.9501464594       -6.0641614662  MEOH      557             0.0000000000
     19892      1249  MEOH      HO2           -13.2695000180       25.9740847809       -6.1603803621  MEOH      557             0.0000000000
     19893      1249  MEOH      H1A           -12.0779019705       24.7754339033       -4.6674913603  MEOH      557             0.0000000000
     19894      1249  MEOH      H1B           -13.4696141404       23.6289389274       -4.5171816756  MEOH      557             0.0000000000
     19895      1249  MEOH      H1C           -13.6309834362       25.3346144014       -3.9369790742  MEOH      557             0.0000000000
     19896      1249  MEOH      LP1A          -13.7130470682       25.4264695689       -6.0158647747  MEOH      557             0.0000000000
     19897      1249  MEOH      LP1B          -13.6156690574       24.8154186869       -6.2387626043  MEOH      557             0.0000000000
     19898      1250  MEOH      C1            -35.4475876996      -26.6266234477      -21.2071429793  MEOH      558             0.0000000000
     19899      1250  MEOH      DC1           -35.4497792089      -26.6188802956      -21.2002762542  MEOH      558             0.0000000000
     19900      1250  MEOH      O1            -35.1199549488      -25.2575243854      -20.9673656341  MEOH      558             0.0000000000
     19901      1250  MEOH      DO1           -35.1259560501      -25.2534166794      -20.9627634876  MEOH      558             0.0000000000
     19902      1250  MEOH      HO1           -34.8060677159      -24.8864165824      -21.8068022330  MEOH      558             0.0000000000
     19903      1250  MEOH      HO2           -35.8865090772      -24.8735517499      -20.5136478973  MEOH      558             0.0000000000
     19904      1250  MEOH      H1A           -35.7236183300      -27.1110797303      -20.2461902218  MEOH      558             0.0000000000
     19905      1250  MEOH      H1B           -34.5769667380      -27.1623640650      -21.6422546111  MEOH      558             0.0000000000
     19906      1250  MEOH      H1C           -36.3065049743      -26.7076067796      -21.9071599912  MEOH      558             0.0000000000
     19907      1250  MEOH      LP1A          -35.4017519811      -25.0563002599      -21.0183488061  MEOH      558             0.0000000000
     19908      1250  MEOH      LP1B          -34.7863025619      -25.2304047376      -20.8651863337  MEOH      558             0.0000000000
     19909      1251  MEOH      C1             28.5164737128        6.3176484311       -9.2502053702  MEOH      559             0.0000000000
     19910      1251  MEOH      DC1            28.5118093615        6.3218115389       -9.2551521204  MEOH      559             0.0000000000
     19911      1251  MEOH      O1             28.8846332161        5.1060491788       -9.9153152142  MEOH      559             0.0000000000
     19912      1251  MEOH      DO1            28.8914815473        5.1134794263       -9.9207042028  MEOH      559             0.0000000000
     19913      1251  MEOH      HO1            29.3812831992        4.5692271902       -9.2780860974  MEOH      559             0.0000000000
     19914      1251  MEOH      HO2            28.0604305916        4.7493232976      -10.2818348992  MEOH      559             0.0000000000
     19915      1251  MEOH      H1A            27.9062172752        6.9489372310       -9.9309274365  MEOH      559             0.0000000000
     19916      1251  MEOH      H1B            29.4154478650        6.8962321484       -8.9478688733  MEOH      559             0.0000000000
     19917      1251  MEOH      H1C            27.9204327209        6.0897223142       -8.3407517860  MEOH      559             0.0000000000
     19918      1251  MEOH      LP1A           28.6327357008        4.8663348851       -9.8755069341  MEOH      559             0.0000000000
     19919      1251  MEOH      LP1B           29.1929148661        5.1466094190      -10.0759928143  MEOH      559             0.0000000000
     19920      1252  MEOH      C1            -28.5314877803       10.7359005434      -29.1036426744  MEOH      560             0.0000000000
     19921      1252  MEOH      DC1           -28.5280913719       10.7395639274      -29.1065654840  MEOH      560             0.0000000000
     19922      1252  MEOH      O1            -28.8043427653        9.4457374887      -28.5573741247  MEOH      560             0.0000000000
     19923      1252  MEOH      DO1           -28.8067456697        9.4475735038      -28.5588878297  MEOH      560             0.0000000000
     19924      1252  MEOH      HO1           -28.0212651691        9.1685775549      -28.0565030335  MEOH      560             0.0000000000
     19925      1252  MEOH      HO2           -29.6705837288        9.5183282995      -28.1269590141  MEOH      560             0.0000000000
     19926      1252  MEOH      H1A           -29.3703916318       11.0692647982      -29.7512765234  MEOH      560             0.0000000000
     19927      1252  MEOH      H1B           -27.6009149277       10.6945418818      -29.7091545464  MEOH      560             0.0000000000
     19928      1252  MEOH      H1C           -28.4021923327       11.4767600837      -28.2858830331  MEOH      560             0.0000000000
     19929      1252  MEOH      LP1A          -28.9556908894        9.4782205472      -28.2434655452  MEOH      560             0.0000000000
     19930      1252  MEOH      LP1B          -28.7091752180        9.1970123355      -28.7844840896  MEOH      560             0.0000000000
     19931      1253  MEOH      C1            -18.0913723331      -26.4256224653        1.2037371583  MEOH      561             0.0000000000
     19932      1253  MEOH      DC1           -18.0939619766      -26.4269738181        1.2084077276  MEOH      561             0.0000000000
     19933      1253  MEOH      O1            -17.2408844288      -26.5335576628        2.3439250849  MEOH      561             0.0000000000
     19934      1253  MEOH      DO1           -17.2383491167      -26.5213166747        2.3473967515  MEOH      561             0.0000000000
     19935      1253  MEOH      HO1           -16.3667925161      -26.8043836232        2.0221850852  MEOH      561             0.0000000000
     19936      1253  MEOH      HO2           -17.3612142952      -25.7106384617        2.8431491960  MEOH      561             0.0000000000
     19937      1253  MEOH      H1A           -19.1416022495      -26.2536867317        1.5227610238  MEOH      561             0.0000000000
     19938      1253  MEOH      H1B           -18.0506671472      -27.3679639740        0.6166625723  MEOH      561             0.0000000000
     19939      1253  MEOH      H1C           -17.7677700965      -25.5880710182        0.5494358776  MEOH      561             0.0000000000
     19940      1253  MEOH      LP1A          -17.0884859803      -26.2253140788        2.4091984011  MEOH      561             0.0000000000
     19941      1253  MEOH      LP1B          -17.2592676407      -26.8568297031        2.4768056534  MEOH      561             0.0000000000
     19942      1254  MEOH      C1            -36.3236327835       33.1988056928       15.6501876664  MEOH      562             0.0000000000
     19943      1254  MEOH      DC1           -36.3233236260       33.2003580753       15.6546032770  MEOH      562             0.0000000000
     19944      1254  MEOH      O1            -36.5537443521       32.6900305726       14.3418626918  MEOH      562             0.0000000000
     19945      1254  MEOH      DO1           -36.5572273116       32.6870073905       14.3461891506  MEOH      562             0.0000000000
     19946      1254  MEOH      HO1           -36.3480271246       31.7425060145       14.3697487966  MEOH      562             0.0000000000
     19947      1254  MEOH      HO2           -37.4408857068       32.9960829358       14.0964810142  MEOH      562             0.0000000000
     19948      1254  MEOH      H1A           -36.4721213701       34.2997005658       15.6675835905  MEOH      562             0.0000000000
     19949      1254  MEOH      H1B           -35.2860029263       32.9598285260       15.9672605203  MEOH      562             0.0000000000
     19950      1254  MEOH      H1C           -37.0353210285       32.7196799620       16.3560625679  MEOH      562             0.0000000000
     19951      1254  MEOH      LP1A          -36.8867634301       32.5870564614       14.3103249981  MEOH      562             0.0000000000
     19952      1254  MEOH      LP1B          -36.2625568287       32.7178500780       14.1496755400  MEOH      562             0.0000000000
     19953      1255  MEOH      C1             20.6610021148        0.4195171457      -11.7858517377  MEOH      563             0.0000000000
     19954      1255  MEOH      DC1            20.6484003744        0.4021180461      -11.7804867399  MEOH      563             0.0000000000
     19955      1255  MEOH      O1             21.2980479638        1.6890573585      -11.6756587278  MEOH      563             0.0000000000
     19956      1255  MEOH      DO1            21.2714961059        1.6869611865      -11.6837179555  MEOH      563             0.0000000000
     19957      1255  MEOH      HO1            22.2377681599        1.5504980428      -11.4791205134  MEOH      563             0.0000000000
     19958      1255  MEOH      HO2            20.9928386254        2.2179270856      -12.4293457129  MEOH      563             0.0000000000
     19959      1255  MEOH      H1A            19.5592661590        0.5614600931      -11.7671145067  MEOH      563             0.0000000000
     19960      1255  MEOH      H1B            20.9555544471       -0.2112599655      -10.9200110137  MEOH      563             0.0000000000
     19961      1255  MEOH      H1C            20.9446111764       -0.0700478120      -12.7419966295  MEOH      563             0.0000000000
     19962      1255  MEOH      LP1A           21.4131152453        1.7928906771      -11.9894710327  MEOH      563             0.0000000000
     19963      1255  MEOH      LP1B           21.2800329050        1.8037738649      -11.3454836518  MEOH      563             0.0000000000
     19964      1256  MEOH      C1             -6.6222559222      -22.3080386149       -2.4578178122  MEOH      564             0.0000000000
     19965      1256  MEOH      DC1            -6.6160238826      -22.3168398553       -2.4561026075  MEOH      564             0.0000000000
     19966      1256  MEOH      O1             -6.4124586552      -21.0230916038       -1.8691921679  MEOH      564             0.0000000000
     19967      1256  MEOH      DO1            -6.4217734900      -21.0377313373       -1.8681738902  MEOH      564             0.0000000000
     19968      1256  MEOH      HO1            -5.8150649755      -20.5078496184       -2.4335913953  MEOH      564             0.0000000000
     19969      1256  MEOH      HO2            -7.2857565481      -20.6797552172       -1.6234872285  MEOH      564             0.0000000000
     19970      1256  MEOH      H1A            -7.2679169725      -22.9166559021       -1.7892164310  MEOH      564             0.0000000000
     19971      1256  MEOH      H1B            -5.6542011653      -22.8284607845       -2.6201500435  MEOH      564             0.0000000000
     19972      1256  MEOH      H1C            -7.1319728612      -22.2106027962       -3.4401700420  MEOH      564             0.0000000000
     19973      1256  MEOH      LP1A           -6.6566896959      -20.7987976757       -1.9811896348  MEOH      564             0.0000000000
     19974      1256  MEOH      LP1B           -6.1399735650      -21.0349483093       -1.6498492990  MEOH      564             0.0000000000
     19975      1257  MEOH      C1             -5.2641841432        9.1822941462      -15.3431101944  MEOH      565             0.0000000000
     19976      1257  MEOH      DC1            -5.2479277344        9.1780884216      -15.3519104781  MEOH      565             0.0000000000
     19977      1257  MEOH      O1             -5.6392360780       10.4864295292      -14.9112685211  MEOH      565             0.0000000000
     19978      1257  MEOH      DO1            -5.6208764580       10.4805137677      -14.9112715701  MEOH      565             0.0000000000
     19979      1257  MEOH      HO1            -5.6158231415       11.0812568265      -15.6771225025  MEOH      565             0.0000000000
     19980      1257  MEOH      HO2            -6.4882379095       10.3561508091      -14.4605764459  MEOH      565             0.0000000000
     19981      1257  MEOH      H1A            -5.3462207881        8.5107224683      -14.4618710268  MEOH      565             0.0000000000
     19982      1257  MEOH      H1B            -4.2106702265        9.1699336104      -15.6956391239  MEOH      565             0.0000000000
     19983      1257  MEOH      H1C            -5.9521724147        8.8188313166      -16.1361347277  MEOH      565             0.0000000000
     19984      1257  MEOH      LP1A           -5.9864573760       10.5245651537      -14.9332467915  MEOH      565             0.0000000000
     19985      1257  MEOH      LP1B           -5.3563675748       10.6636273346      -14.8059767948  MEOH      565             0.0000000000
     19986      1258  MEOH      C1             -0.2457227475      -16.7189313339       27.5558279522  MEOH      566             0.0000000000
     19987      1258  MEOH      DC1            -0.2533134596      -16.7270245258       27.5328028749  MEOH      566             0.0000000000
     19988      1258  MEOH      O1              0.1321824406      -17.9059822992       28.2555271315  MEOH      566             0.0000000000
     19989      1258  MEOH      DO1             0.1296952472      -17.9236214146       28.2318201223  MEOH      566             0.0000000000
     19990      1258  MEOH      HO1             1.0750268092      -17.8111775744       28.4627867782  MEOH      566             0.0000000000
     19991      1258  MEOH      HO2            -0.4854505369      -17.9534920958       29.0019668975  MEOH      566             0.0000000000
     19992      1258  MEOH      H1A            -1.3509015379      -16.6882548569       27.4464671029  MEOH      566             0.0000000000
     19993      1258  MEOH      H1B             0.2296702593      -16.7036822640       26.5517911227  MEOH      566             0.0000000000
     19994      1258  MEOH      H1C             0.0757032812      -15.8277900657       28.1362360408  MEOH      566             0.0000000000
     19995      1258  MEOH      LP1A            0.0812601522      -17.8636977326       28.5992114866  MEOH      566             0.0000000000
     19996      1258  MEOH      LP1B            0.2356895573      -18.1511285412       28.0281736692  MEOH      566             0.0000000000
     19997      1259  MEOH      C1             -5.4273984082      -32.5268090597       28.0698777016  MEOH      567             0.0000000000
     19998      1259  MEOH      DC1            -5.4276864422      -32.5320310022       28.0730345949  MEOH      567             0.0000000000
     19999      1259  MEOH      O1             -6.5044406730      -33.4529407487       27.9040714368  MEOH      567             0.0000000000
     20000      1259  MEOH      DO1            -6.5066122647      -33.4565234044       27.8959908139  MEOH      567             0.0000000000
     20001      1259  MEOH      HO1            -6.3889086653      -34.1538334962       28.5646028233  MEOH      567             0.0000000000
     20002      1259  MEOH      HO2            -7.3116994445      -32.9151747968       27.9104789967  MEOH      567             0.0000000000
     20003      1259  MEOH      H1A            -5.4848404854      -31.7391625310       27.2884467368  MEOH      567             0.0000000000
     20004      1259  MEOH      H1B            -4.4511766055      -33.0510212609       27.9891710715  MEOH      567             0.0000000000
     20005      1259  MEOH      H1C            -5.4999815996      -32.0371901832       29.0645264017  MEOH      567             0.0000000000
     20006      1259  MEOH      LP1A           -6.7775184031      -33.3552952261       28.1000150646  MEOH      567             0.0000000000
     20007      1259  MEOH      LP1B           -6.4158141624      -33.6992672409       27.6717600060  MEOH      567             0.0000000000
     20008      1260  MEOH      C1             -0.5409493246        2.2124913141      -31.6647964797  MEOH      568             0.0000000000
     20009      1260  MEOH      DC1            -0.5308228423        2.2066013014      -31.6665970877  MEOH      568             0.0000000000
     20010      1260  MEOH      O1              0.8372933113        2.5608514525      -31.7886408887  MEOH      568             0.0000000000
     20011      1260  MEOH      DO1             0.8449796369        2.5618798631      -31.7740883357  MEOH      568             0.0000000000
     20012      1260  MEOH      HO1             1.3394802395        1.7336589070      -31.7218518042  MEOH      568             0.0000000000
     20013      1260  MEOH      HO2             0.8886800293        3.0724998218      -32.6111221056  MEOH      568             0.0000000000
     20014      1260  MEOH      H1A            -1.1714811631        3.1143950412      -31.8175062310  MEOH      568             0.0000000000
     20015      1260  MEOH      H1B            -0.7460980673        1.8071135855      -30.6509405281  MEOH      568             0.0000000000
     20016      1260  MEOH      H1C            -0.8168252191        1.4570249131      -32.4312715343  MEOH      568             0.0000000000
     20017      1260  MEOH      LP1A            0.9318358474        2.5573605130      -32.1256119886  MEOH      568             0.0000000000
     20018      1260  MEOH      LP1B            0.9710950465        2.6338417722      -31.4735702476  MEOH      568             0.0000000000
     20019      1261  MEOH      C1              0.8860533975      -24.9345969921       18.7729071139  MEOH      569             0.0000000000
     20020      1261  MEOH      DC1             0.8859717816      -24.9380582543       18.7738893439  MEOH      569             0.0000000000
     20021      1261  MEOH      O1             -0.0681684030      -25.9949251209       18.7246312686  MEOH      569             0.0000000000
     20022      1261  MEOH      DO1            -0.0619795939      -26.0040116050       18.7413334051  MEOH      569             0.0000000000
     20023      1261  MEOH      HO1            -0.2712193239      -26.1573962480       17.7901402539  MEOH      569             0.0000000000
     20024      1261  MEOH      HO2             0.2905327643      -26.7004922147       19.2853527230  MEOH      569             0.0000000000
     20025      1261  MEOH      H1A             1.0184838271      -24.5914548971       19.8212566186  MEOH      569             0.0000000000
     20026      1261  MEOH      H1B             0.5525701789      -24.0777333120       18.1492929877  MEOH      569             0.0000000000
     20027      1261  MEOH      H1C             1.8716513310      -25.2963274700       18.4094944347  MEOH      569             0.0000000000
     20028      1261  MEOH      LP1A            0.0963858710      -26.3035426130       18.7113220791  MEOH      569             0.0000000000
     20029      1261  MEOH      LP1B           -0.3926540548      -25.8648056417       18.7413040871  MEOH      569             0.0000000000
     20030      1262  MEOH      C1            -34.1453965202       10.0953087193        8.3835741513  MEOH      570             0.0000000000
     20031      1262  MEOH      DC1           -34.1377532878       10.0817515853        8.3823523362  MEOH      570             0.0000000000
     20032      1262  MEOH      O1            -34.8522437931       11.0380742808        9.1782317042  MEOH      570             0.0000000000
     20033      1262  MEOH      DO1           -34.8715479439       11.0225516384        9.1659726843  MEOH      570             0.0000000000
     20034      1262  MEOH      HO1           -34.6602959438       11.9341950182        8.8603895296  MEOH      570             0.0000000000
     20035      1262  MEOH      HO2           -35.7534934322       10.7114124483        9.3263571077  MEOH      570             0.0000000000
     20036      1262  MEOH      H1A           -34.1130925731        9.1288089897        8.9305254562  MEOH      570             0.0000000000
     20037      1262  MEOH      H1B           -33.1114983261       10.4619992629        8.2077515984  MEOH      570             0.0000000000
     20038      1262  MEOH      H1C           -34.6656377334        9.9625239412        7.4109291581  MEOH      570             0.0000000000
     20039      1262  MEOH      LP1A          -35.1697584026       11.0949620676        9.0424073599  MEOH      570             0.0000000000
     20040      1262  MEOH      LP1B          -34.6582123696       11.1314325668        9.4541592982  MEOH      570             0.0000000000
     20041      1263  MEOH      C1             -7.9627393959       26.7353498865       -6.6327746334  MEOH      571             0.0000000000
     20042      1263  MEOH      DC1            -7.9666395611       26.7372037981       -6.6275591035  MEOH      571             0.0000000000
     20043      1263  MEOH      O1             -7.2946103731       26.7414480066       -5.3777573699  MEOH      571             0.0000000000
     20044      1263  MEOH      DO1            -7.3013959283       26.7447948207       -5.3669918098  MEOH      571             0.0000000000
     20045      1263  MEOH      HO1            -7.1485444504       27.6660991972       -5.1236217297  MEOH      571             0.0000000000
     20046      1263  MEOH      HO2            -7.7741646534       26.1204727417       -4.8073913361  MEOH      571             0.0000000000
     20047      1263  MEOH      H1A            -7.9864183950       25.7036616210       -7.0443321966  MEOH      571             0.0000000000
     20048      1263  MEOH      H1B            -7.4354709683       27.4010851796       -7.3490884794  MEOH      571             0.0000000000
     20049      1263  MEOH      H1C            -9.0061377169       27.0835701820       -6.4766222403  MEOH      571             0.0000000000
     20050      1263  MEOH      LP1A           -7.5286612167       26.7396080559       -5.1175328185  MEOH      571             0.0000000000
     20051      1263  MEOH      LP1B           -6.9481354412       26.7328355972       -5.4265523285  MEOH      571             0.0000000000
     20052      1264  MEOH      C1            -28.2308866229        4.3018255651      -31.7046661810  MEOH      572             0.0000000000
     20053      1264  MEOH      DC1           -28.2424768985        4.3087095043      -31.6992553678  MEOH      572             0.0000000000
     20054      1264  MEOH      O1            -28.4565511603        5.7112892888      -31.6267519691  MEOH      572             0.0000000000
     20055      1264  MEOH      DO1           -28.4641471568        5.7228803568      -31.6286795530  MEOH      572             0.0000000000
     20056      1264  MEOH      HO1           -28.7430272235        5.8869286393      -30.7168166506  MEOH      572             0.0000000000
     20057      1264  MEOH      HO2           -27.6426572424        6.1192570129      -31.9614742839  MEOH      572             0.0000000000
     20058      1264  MEOH      H1A           -27.9411100515        4.0171715838      -32.7387467630  MEOH      572             0.0000000000
     20059      1264  MEOH      H1B           -29.1554335372        3.7551867372      -31.4205535359  MEOH      572             0.0000000000
     20060      1264  MEOH      H1C           -27.4030146656        4.0121825172      -31.0227160885  MEOH      572             0.0000000000
     20061      1264  MEOH      LP1A          -28.1608562406        5.8750211821      -31.5358873357  MEOH      572             0.0000000000
     20062      1264  MEOH      LP1B          -28.7870327626        5.7847001637      -31.7155931418  MEOH      572             0.0000000000
     20063      1265  MEOH      C1            -24.9842191607      -34.8732633247       -1.6139217827  MEOH      573             0.0000000000
     20064      1265  MEOH      DC1           -24.9856776590      -34.8645359168       -1.6117825884  MEOH      573             0.0000000000
     20065      1265  MEOH      O1            -23.9777216946      -33.8560544531       -1.6414498006  MEOH      573             0.0000000000
     20066      1265  MEOH      DO1           -23.9779019692      -33.8517088112       -1.6416486330  MEOH      573             0.0000000000
     20067      1265  MEOH      HO1           -24.1260203292      -33.2737900392       -0.8799541224  MEOH      573             0.0000000000
     20068      1265  MEOH      HO2           -23.1342094289      -34.3274846957       -1.7259517775  MEOH      573             0.0000000000
     20069      1265  MEOH      H1A           -24.8614342204      -35.5438176550       -2.4911912686  MEOH      573             0.0000000000
     20070      1265  MEOH      H1B           -25.9966715411      -34.4173347585       -1.6512087973  MEOH      573             0.0000000000
     20071      1265  MEOH      H1C           -24.8888684796      -35.4831538161       -0.6901995105  MEOH      573             0.0000000000
     20072      1265  MEOH      LP1A          -23.6947570438      -33.9628389493       -1.4653019145  MEOH      573             0.0000000000
     20073      1265  MEOH      LP1B          -24.0879060982      -33.5837462983       -1.8317329214  MEOH      573             0.0000000000
     20074      1266  MEOH      C1             13.2823860636       25.5851340812       10.8767608032  MEOH      574             0.0000000000
     20075      1266  MEOH      DC1            13.2926005283       25.5821174264       10.8698863511  MEOH      574             0.0000000000
     20076      1266  MEOH      O1             14.0821956238       26.7104597070       10.4956724354  MEOH      574             0.0000000000
     20077      1266  MEOH      DO1            14.0994932867       26.7061448628       10.4916303353  MEOH      574             0.0000000000
     20078      1266  MEOH      HO1            13.8009315209       27.4504863970       11.0561641865  MEOH      574             0.0000000000
     20079      1266  MEOH      HO2            15.0009486948       26.4045003258       10.4392663048  MEOH      574             0.0000000000
     20080      1266  MEOH      H1A            13.4685304200       24.7234969999       10.2005560862  MEOH      574             0.0000000000
     20081      1266  MEOH      H1B            12.2052343800       25.8482008662       10.8070390909  MEOH      574             0.0000000000
     20082      1266  MEOH      H1C            13.5079751916       25.3006195609       11.9267522484  MEOH      574             0.0000000000
     20083      1266  MEOH      LP1A           14.3770408199       26.7170828661       10.6841464233  MEOH      574             0.0000000000
     20084      1266  MEOH      LP1B           13.9264166071       26.8854836150       10.2356733401  MEOH      574             0.0000000000
     20085      1267  MEOH      C1             -7.3602640139      -32.8094231740      -15.6493424685  MEOH      575             0.0000000000
     20086      1267  MEOH      DC1            -7.3538001458      -32.8075401926      -15.6432507657  MEOH      575             0.0000000000
     20087      1267  MEOH      O1             -5.9968270604      -32.7511532811      -16.0777893656  MEOH      575             0.0000000000
     20088      1267  MEOH      DO1            -5.9918369230      -32.7443227339      -16.0750714250  MEOH      575             0.0000000000
     20089      1267  MEOH      HO1            -5.4845372695      -32.3196076188      -15.3762000901  MEOH      575             0.0000000000
     20090      1267  MEOH      HO2            -5.7666452348      -33.6529853528      -16.3509472741  MEOH      575             0.0000000000
     20091      1267  MEOH      H1A            -7.9825788935      -33.2603339369      -16.4516670137  MEOH      575             0.0000000000
     20092      1267  MEOH      H1B            -7.7427230700      -31.7879018965      -15.4382966192  MEOH      575             0.0000000000
     20093      1267  MEOH      H1C            -7.4482574730      -33.4345549175      -14.7351278031  MEOH      575             0.0000000000
     20094      1267  MEOH      LP1A           -5.8279649705      -33.0415601954      -15.9795579108  MEOH      575             0.0000000000
     20095      1267  MEOH      LP1B           -5.9403390671      -32.4562060711      -16.2575537947  MEOH      575             0.0000000000
     20096      1268  MEOH      C1             20.0137560656       13.6839461721       -6.8791357830  MEOH      576             0.0000000000
     20097      1268  MEOH      DC1            20.0070635988       13.6934644078       -6.8917318319  MEOH      576             0.0000000000
     20098      1268  MEOH      O1             20.0067529409       15.0214490658       -7.3847545890  MEOH      576             0.0000000000
     20099      1268  MEOH      DO1            19.9833194729       15.0225086440       -7.4026445749  MEOH      576             0.0000000000
     20100      1268  MEOH      HO1            20.5716482197       15.0827493194       -8.1709069934  MEOH      576             0.0000000000
     20101      1268  MEOH      HO2            19.1163852434       15.3923983599       -7.2820804173  MEOH      576             0.0000000000
     20102      1268  MEOH      H1A            19.8697703634       13.7009649229       -5.7776370396  MEOH      576             0.0000000000
     20103      1268  MEOH      H1B            20.9684892366       13.1635271543       -7.1071042426  MEOH      576             0.0000000000
     20104      1268  MEOH      H1C            19.2171871589       13.0797524797       -7.3636447705  MEOH      576             0.0000000000
     20105      1268  MEOH      LP1A           19.7450425021       15.0615181570       -7.6136696697  MEOH      576             0.0000000000
     20106      1268  MEOH      LP1B           20.2601534362       15.2084704153       -7.2320745187  MEOH      576             0.0000000000
     20107      1269  MEOH      C1             -0.8458366953       31.3992561107        7.5158171960  MEOH      577             0.0000000000
     20108      1269  MEOH      DC1            -0.8617027643       31.3964596400        7.5131389718  MEOH      577             0.0000000000
     20109      1269  MEOH      O1              0.5015786554       31.6350918857        7.9280788887  MEOH      577             0.0000000000
     20110      1269  MEOH      DO1             0.4929074182       31.6350939212        7.9273339534  MEOH      577             0.0000000000
     20111      1269  MEOH      HO1             0.7052363636       31.0282270268        8.6568714392  MEOH      577             0.0000000000
     20112      1269  MEOH      HO2             1.0329947236       31.6108362358        7.1169632213  MEOH      577             0.0000000000
     20113      1269  MEOH      H1A            -1.1096021515       32.1121589327        6.7055589949  MEOH      577             0.0000000000
     20114      1269  MEOH      H1B            -1.5352170892       31.5519631422        8.3735795386  MEOH      577             0.0000000000
     20115      1269  MEOH      H1C            -0.9435511096       30.3616704624        7.1308640616  MEOH      577             0.0000000000
     20116      1269  MEOH      LP1A            0.7203814302       31.4346868228        7.7424363383  MEOH      577             0.0000000000
     20117      1269  MEOH      LP1B            0.5095862507       31.8831975438        8.1748165243  MEOH      577             0.0000000000
     20118      1270  MEOH      C1             27.9559434774       32.3315934076      -23.7734819035  MEOH      578             0.0000000000
     20119      1270  MEOH      DC1            27.9446467555       32.3561093842      -23.7693972256  MEOH      578             0.0000000000
     20120      1270  MEOH      O1             27.7575289064       33.6625945532      -24.2511196132  MEOH      578             0.0000000000
     20121      1270  MEOH      DO1            27.7458411410       33.6840383958      -24.2425248757  MEOH      578             0.0000000000
     20122      1270  MEOH      HO1            27.4079793306       33.5934304287      -25.1533010904  MEOH      578             0.0000000000
     20123      1270  MEOH      HO2            27.3030900078       34.1459609398      -23.5434881945  MEOH      578             0.0000000000
     20124      1270  MEOH      H1A            28.5154327555       32.3488111131      -22.8137963829  MEOH      578             0.0000000000
     20125      1270  MEOH      H1B            28.5434494916       31.7479026941      -24.5140646711  MEOH      578             0.0000000000
     20126      1270  MEOH      H1C            26.9760605320       31.8346010729      -23.6087122678  MEOH      578             0.0000000000
     20127      1270  MEOH      LP1A           27.4362728831       33.7732585832      -24.1671670076  MEOH      578             0.0000000000
     20128      1270  MEOH      LP1B           28.0493556553       33.7792450605      -24.4051644370  MEOH      578             0.0000000000
     20129      1271  MEOH      C1             18.6348843995      -28.1268060658       10.2991777956  MEOH      579             0.0000000000
     20130      1271  MEOH      DC1            18.6317833486      -28.1197275976       10.3007031681  MEOH      579             0.0000000000
     20131      1271  MEOH      O1             18.2037102783      -26.7624541540       10.3093690023  MEOH      579             0.0000000000
     20132      1271  MEOH      DO1            18.2083429329      -26.7590738153       10.3091023236  MEOH      579             0.0000000000
     20133      1271  MEOH      HO1            17.2650646386      -26.7539286634       10.5538514745  MEOH      579             0.0000000000
     20134      1271  MEOH      HO2            18.8559929123      -26.2774944049       10.8387473244  MEOH      579             0.0000000000
     20135      1271  MEOH      H1A            19.6901735681      -28.1963970765        9.9588208316  MEOH      579             0.0000000000
     20136      1271  MEOH      H1B            18.0000654982      -28.7260118434        9.6119526515  MEOH      579             0.0000000000
     20137      1271  MEOH      H1C            18.5617306885      -28.5491143722       11.3241779084  MEOH      579             0.0000000000
     20138      1271  MEOH      LP1A           18.2557881207      -26.6228157779       10.6260534229  MEOH      579             0.0000000000
     20139      1271  MEOH      LP1B           18.0900466637      -26.6704540342        9.9913806996  MEOH      579             0.0000000000
     20140      1272  MEOH      C1             32.5801779111       32.2124860139       20.5713142687  MEOH      580             0.0000000000
     20141      1272  MEOH      DC1            32.5762921755       32.2080224595       20.5681856579  MEOH      580             0.0000000000
     20142      1272  MEOH      O1             32.0783925617       33.0626301641       21.6015605311  MEOH      580             0.0000000000
     20143      1272  MEOH      DO1            32.0817113959       33.0631846985       21.5912050000  MEOH      580             0.0000000000
     20144      1272  MEOH      HO1            32.8276482314       33.4455620886       22.0841359995  MEOH      580             0.0000000000
     20145      1272  MEOH      HO2            31.3976086364       33.6177353824       21.1901101155  MEOH      580             0.0000000000
     20146      1272  MEOH      H1A            31.7624440438       31.5723948208       20.1764527907  MEOH      580             0.0000000000
     20147      1272  MEOH      H1B            33.4030775112       31.5757667448       20.9608599293  MEOH      580             0.0000000000
     20148      1272  MEOH      H1C            32.9517750383       32.8348542114       19.7293555986  MEOH      580             0.0000000000
     20149      1272  MEOH      LP1A           32.0348746493       33.3872865703       21.4782543708  MEOH      580             0.0000000000
     20150      1272  MEOH      LP1B           32.0269699543       32.8781641732       21.8945247161  MEOH      580             0.0000000000
     20151      1273  MEOH      C1             32.3481317372       14.1826789741       25.9963640999  MEOH      581             0.0000000000
     20152      1273  MEOH      DC1            32.3424699637       14.1865442390       25.9981442226  MEOH      581             0.0000000000
     20153      1273  MEOH      O1             31.7488716678       14.9821938017       24.9706731333  MEOH      581             0.0000000000
     20154      1273  MEOH      DO1            31.7439708339       14.9852342092       24.9685896192  MEOH      581             0.0000000000
     20155      1273  MEOH      HO1            30.9873276802       15.4374509278       25.3627084684  MEOH      581             0.0000000000
     20156      1273  MEOH      HO2            32.4734449781       15.4931564150       24.5772131895  MEOH      581             0.0000000000
     20157      1273  MEOH      H1A            33.1772953176       13.5807763871       25.5668038210  MEOH      581             0.0000000000
     20158      1273  MEOH      H1B            31.5939552080       13.4903434724       26.4278850334  MEOH      581             0.0000000000
     20159      1273  MEOH      H1C            32.7576324835       14.8336007657       26.7981938583  MEOH      581             0.0000000000
     20160      1273  MEOH      LP1A           31.8964953467       15.2994802832       24.9646284609  MEOH      581             0.0000000000
     20161      1273  MEOH      LP1B           31.5089869604       14.7949589690       24.7977614662  MEOH      581             0.0000000000
     20162      1274  MEOH      C1            -10.8294295930       -1.5741763258       -1.6672476593  MEOH      582             0.0000000000
     20163      1274  MEOH      DC1           -10.8368496842       -1.5807254343       -1.6631009184  MEOH      582             0.0000000000
     20164      1274  MEOH      O1            -12.1149668427       -1.5220218336       -2.2912751526  MEOH      582             0.0000000000
     20165      1274  MEOH      DO1           -12.1165225157       -1.5352304083       -2.2905159204  MEOH      582             0.0000000000
     20166      1274  MEOH      HO1           -12.7735836213       -1.8500620253       -1.6592042921  MEOH      582             0.0000000000
     20167      1274  MEOH      HO2           -12.1936048355       -0.6145739632       -2.6248233928  MEOH      582             0.0000000000
     20168      1274  MEOH      H1A           -10.0608638839       -1.1962046124       -2.3748952659  MEOH      582             0.0000000000
     20169      1274  MEOH      H1B           -10.5588722486       -2.6166731046       -1.3946303642  MEOH      582             0.0000000000
     20170      1274  MEOH      H1C           -10.8207932849       -0.9430614835       -0.7529498568  MEOH      582             0.0000000000
     20171      1274  MEOH      LP1A          -12.2630667220       -1.2100396770       -2.2344107550  MEOH      582             0.0000000000
     20172      1274  MEOH      LP1B          -12.1773041077       -1.8210447068       -2.4621534328  MEOH      582             0.0000000000
     20173      1275  MEOH      C1             22.8274195898      -28.0702757725      -35.3534718621  MEOH      583             0.0000000000
     20174      1275  MEOH      DC1            22.8235521291      -28.0798395246      -35.3566662331  MEOH      583             0.0000000000
     20175      1275  MEOH      O1             21.9337103439      -28.2643645012      -36.4497995032  MEOH      583             0.0000000000
     20176      1275  MEOH      DO1            21.9275819728      -28.2658093597      -36.4523927117  MEOH      583             0.0000000000
     20177      1275  MEOH      HO1            21.2474947670      -28.8793896472      -36.1468931607  MEOH      583             0.0000000000
     20178      1275  MEOH      HO2            21.6826653233      -27.3730951056      -36.7387895759  MEOH      583             0.0000000000
     20179      1275  MEOH      H1A            23.6821108434      -27.4366901831      -35.6734611811  MEOH      583             0.0000000000
     20180      1275  MEOH      H1B            23.2141072339      -29.0502227702      -35.0006297612  MEOH      583             0.0000000000
     20181      1275  MEOH      H1C            22.2990253263      -27.5613203432      -34.5191548520  MEOH      583             0.0000000000
     20182      1275  MEOH      LP1A           21.6800918509      -28.0233028040      -36.4416191529  MEOH      583             0.0000000000
     20183      1275  MEOH      LP1B           22.0437731886      -28.5308411403      -36.6482343062  MEOH      583             0.0000000000
     20184      1276  MEOH      C1            -14.8293463057      -36.3669897133        0.6120497731  MEOH      584             0.0000000000
     20185      1276  MEOH      DC1           -14.8294743050      -36.3614900806        0.6151893458  MEOH      584             0.0000000000
     20186      1276  MEOH      O1            -16.2344327313      -36.4182049633        0.3517852448  MEOH      584             0.0000000000
     20187      1276  MEOH      DO1           -16.2358601956      -36.4140224716        0.3536114554  MEOH      584             0.0000000000
     20188      1276  MEOH      HO1           -16.5403681018      -37.3043524226        0.6008760503  MEOH      584             0.0000000000
     20189      1276  MEOH      HO2           -16.6144041440      -35.6297471313        0.7699430780  MEOH      584             0.0000000000
     20190      1276  MEOH      H1A           -14.4166092072      -35.4063896710        0.2362617393  MEOH      584             0.0000000000
     20191      1276  MEOH      H1B           -14.3150639762      -37.2042737043        0.0935999632  MEOH      584             0.0000000000
     20192      1276  MEOH      H1C           -14.6429596562      -36.4422360081        1.7047157845  MEOH      584             0.0000000000
     20193      1276  MEOH      LP1A          -16.4123240750      -36.3104342563        0.6332815050  MEOH      584             0.0000000000
     20194      1276  MEOH      LP1B          -16.2915040109      -36.5236989878        0.0229784932  MEOH      584             0.0000000000
     20195      1277  MEOH      C1            -25.4878083709       -6.4486142204       12.2491912781  MEOH      585             0.0000000000
     20196      1277  MEOH      DC1           -25.4879192015       -6.4542499985       12.2422936023  MEOH      585             0.0000000000
     20197      1277  MEOH      O1            -26.6540171481       -5.7227633900       12.6433524588  MEOH      585             0.0000000000
     20198      1277  MEOH      DO1           -26.6587021158       -5.7291195454       12.6408891808  MEOH      585             0.0000000000
     20199      1277  MEOH      HO1           -27.0148263732       -5.2983065174       11.8492787420  MEOH      585             0.0000000000
     20200      1277  MEOH      HO2           -27.1858299936       -6.3311765954       13.1799234876  MEOH      585             0.0000000000
     20201      1277  MEOH      H1A           -24.9470696923       -6.8207982958       13.1455180586  MEOH      585             0.0000000000
     20202      1277  MEOH      H1B           -24.8019412437       -5.7879492403       11.6769770975  MEOH      585             0.0000000000
     20203      1277  MEOH      H1C           -25.7874681134       -7.3161490841       11.6231654807  MEOH      585             0.0000000000
     20204      1277  MEOH      LP1A          -26.9358790538       -5.9293365377       12.6238229732  MEOH      585             0.0000000000
     20205      1277  MEOH      LP1B          -26.5660006119       -5.3980203821       12.7397633926  MEOH      585             0.0000000000
     20206      1278  MEOH      C1             36.4988698255        1.2722972967       11.8864503912  MEOH      586             0.0000000000
     20207      1278  MEOH      DC1            36.4973540240        1.2759706519       11.8940304440  MEOH      586             0.0000000000
     20208      1278  MEOH      O1             36.3643992496        2.6561114244       11.5788182996  MEOH      586             0.0000000000
     20209      1278  MEOH      DO1            36.3578710260        2.6580020860       11.5849475721  MEOH      586             0.0000000000
     20210      1278  MEOH      HO1            37.1054323127        2.9102999734       11.0068408692  MEOH      586             0.0000000000
     20211      1278  MEOH      HO2            35.4464212288        2.7920005852       11.2964170059  MEOH      586             0.0000000000
     20212      1278  MEOH      H1A            35.7257840304        0.9840287557       12.6304669257  MEOH      586             0.0000000000
     20213      1278  MEOH      H1B            37.5094571414        1.0758029665       12.3040916920  MEOH      586             0.0000000000
     20214      1278  MEOH      H1C            36.3559017529        0.6704393143       10.9636025710  MEOH      586             0.0000000000
     20215      1278  MEOH      LP1A           36.1696879010        2.6963360684       11.2907740865  MEOH      586             0.0000000000
     20216      1278  MEOH      LP1B           36.5269240754        2.8490234806       11.8214509841  MEOH      586             0.0000000000
     20217      1279  MEOH      C1             35.4900274798       -9.4183031963      -32.7125053269  MEOH      587             0.0000000000
     20218      1279  MEOH      DC1            35.4912449828       -9.4126176720      -32.7168451622  MEOH      587             0.0000000000
     20219      1279  MEOH      O1             36.0771958013       -9.2854674224      -34.0109306917  MEOH      587             0.0000000000
     20220      1279  MEOH      DO1            36.0896353859       -9.2880949099      -34.0107643108  MEOH      587             0.0000000000
     20221      1279  MEOH      HO1            36.3115377350       -8.3529089541      -34.1386748158  MEOH      587             0.0000000000
     20222      1279  MEOH      HO2            36.7334059375       -9.9955344562      -34.0889887840  MEOH      587             0.0000000000
     20223      1279  MEOH      H1A            35.0107862884      -10.4163560303      -32.6200963389  MEOH      587             0.0000000000
     20224      1279  MEOH      H1B            34.7122252098       -8.6394171396      -32.5619027332  MEOH      587             0.0000000000
     20225      1279  MEOH      H1C            36.2668581705       -9.3185019664      -31.9245365503  MEOH      587             0.0000000000
     20226      1279  MEOH      LP1A           36.4228454722       -9.3370637740      -33.9918487241  MEOH      587             0.0000000000
     20227      1279  MEOH      LP1B           35.8283779893       -9.2229053033      -34.2489972322  MEOH      587             0.0000000000
     20228      1280  MEOH      C1             28.9612288011       33.7023731605       15.8578738676  MEOH      588             0.0000000000
     20229      1280  MEOH      DC1            28.9648134685       33.6857103164       15.8622215203  MEOH      588             0.0000000000
     20230      1280  MEOH      O1             30.2645793078       33.1261357959       15.7758245840  MEOH      588             0.0000000000
     20231      1280  MEOH      DO1            30.2669340569       33.1148230322       15.7814784932  MEOH      588             0.0000000000
     20232      1280  MEOH      HO1            30.8097267906       33.7724448223       15.3004312055  MEOH      588             0.0000000000
     20233      1280  MEOH      HO2            30.5013237283       32.8556204802       16.6767538514  MEOH      588             0.0000000000
     20234      1280  MEOH      H1A            28.2619797708       32.9885408706       16.3434819978  MEOH      588             0.0000000000
     20235      1280  MEOH      H1B            28.5820424563       33.9407943314       14.8411664066  MEOH      588             0.0000000000
     20236      1280  MEOH      H1C            28.9985038827       34.6387112429       16.4547009493  MEOH      588             0.0000000000
     20237      1280  MEOH      LP1A           30.4527195847       33.2150780663       16.0572362198  MEOH      588             0.0000000000
     20238      1280  MEOH      LP1B           30.2913065629       32.9312821790       15.4863116796  MEOH      588             0.0000000000
     20239      1281  MEOH      C1             32.2341313576       36.0535418871      -22.3241678931  MEOH      589             0.0000000000
     20240      1281  MEOH      DC1            32.2230889759       36.0703225543      -22.3230125776  MEOH      589             0.0000000000
     20241      1281  MEOH      O1             31.2624148171       35.3527317150      -21.5527052514  MEOH      589             0.0000000000
     20242      1281  MEOH      DO1            31.2548061935       35.3727315412      -21.5553544071  MEOH      589             0.0000000000
     20243      1281  MEOH      HO1            30.8399989572       34.7038970273      -22.1370667742  MEOH      589             0.0000000000
     20244      1281  MEOH      HO2            31.7207953586       35.0599841151      -20.7495327152  MEOH      589             0.0000000000
     20245      1281  MEOH      H1A            32.6735182292       36.8297025119      -21.6617217728  MEOH      589             0.0000000000
     20246      1281  MEOH      H1B            31.7726606413       36.5550155970      -23.2016015922  MEOH      589             0.0000000000
     20247      1281  MEOH      H1C            33.0498075394       35.3750146962      -22.6537042635  MEOH      589             0.0000000000
     20248      1281  MEOH      LP1A           31.4091285877       35.0741229805      -21.3998908455  MEOH      589             0.0000000000
     20249      1281  MEOH      LP1B           30.9552192552       35.5198694259      -21.5667006898  MEOH      589             0.0000000000
     20250      1282  MEOH      C1             -8.8155826601       25.6089555848      -18.8417998363  MEOH      590             0.0000000000
     20251      1282  MEOH      DC1            -8.8082778222       25.6072784608      -18.8496452627  MEOH      590             0.0000000000
     20252      1282  MEOH      O1             -9.9491574676       26.0407798184      -18.0987180067  MEOH      590             0.0000000000
     20253      1282  MEOH      DO1            -9.9416203160       26.0237579336      -18.0981167450  MEOH      590             0.0000000000
     20254      1282  MEOH      HO1           -10.3716611789       26.7825447924      -18.5593429486  MEOH      590             0.0000000000
     20255      1282  MEOH      HO2           -10.4399302191       25.2408832570      -17.8533456404  MEOH      590             0.0000000000
     20256      1282  MEOH      H1A            -8.2102328781       24.9316167303      -18.2022025273  MEOH      590             0.0000000000
     20257      1282  MEOH      H1B            -8.1926125777       26.4774739718      -19.1449583587  MEOH      590             0.0000000000
     20258      1282  MEOH      H1C            -9.1467479858       25.0475663297      -19.7415179212  MEOH      590             0.0000000000
     20259      1282  MEOH      LP1A          -10.2329534875       25.8619049665      -18.1985358730  MEOH      590             0.0000000000
     20260      1282  MEOH      LP1B           -9.8540532246       26.2842499252      -17.8659574214  MEOH      590             0.0000000000
     20261      1283  MEOH      C1            -19.2979376617      -30.5620738026      -32.9683019351  MEOH      591             0.0000000000
     20262      1283  MEOH      DC1           -19.2726923533      -30.5668862887      -32.9739983502  MEOH      591             0.0000000000
     20263      1283  MEOH      O1            -18.8463229674      -29.3152897254      -32.4250953622  MEOH      591             0.0000000000
     20264      1283  MEOH      DO1           -18.8306493834      -29.3223145971      -32.4231174227  MEOH      591             0.0000000000
     20265      1283  MEOH      HO1           -18.2231110634      -28.9152170263      -33.0515526696  MEOH      591             0.0000000000
     20266      1283  MEOH      HO2           -19.6570010081      -28.8264330057      -32.2136237973  MEOH      591             0.0000000000
     20267      1283  MEOH      H1A           -20.0418121332      -31.0175085593      -32.2801515496  MEOH      591             0.0000000000
     20268      1283  MEOH      H1B           -18.4416392891      -31.2567333852      -33.1043980888  MEOH      591             0.0000000000
     20269      1283  MEOH      H1C           -19.8211665391      -30.4136120841      -33.9370700500  MEOH      591             0.0000000000
     20270      1283  MEOH      LP1A          -19.0608738959      -29.0569802419      -32.5238076199  MEOH      591             0.0000000000
     20271      1283  MEOH      LP1B          -18.5628883512      -29.3669558570      -32.2263607926  MEOH      591             0.0000000000
     20272      1284  MEOH      C1             15.6368757762      -34.3306012317      -11.7506755815  MEOH      592             0.0000000000
     20273      1284  MEOH      DC1            15.6320304280      -34.3240723403      -11.7558100263  MEOH      592             0.0000000000
     20274      1284  MEOH      O1             15.1503724364      -35.6207325265      -11.3998241356  MEOH      592             0.0000000000
     20275      1284  MEOH      DO1            15.1668101089      -35.6313599485      -11.4038928094  MEOH      592             0.0000000000
     20276      1284  MEOH      HO1            14.6207486597      -35.9376286029      -12.1481392644  MEOH      592             0.0000000000
     20277      1284  MEOH      HO2            15.9074721217      -36.1095208862      -11.0409564613  MEOH      592             0.0000000000
     20278      1284  MEOH      H1A            16.0999095199      -33.8367862350      -10.8697286462  MEOH      592             0.0000000000
     20279      1284  MEOH      H1B            14.7976681617      -33.7116165567      -12.1339634007  MEOH      592             0.0000000000
     20280      1284  MEOH      H1C            16.4091180673      -34.4233541454      -12.5439975469  MEOH      592             0.0000000000
     20281      1284  MEOH      LP1A           15.3803999243      -35.8659393229      -11.4970917142  MEOH      592             0.0000000000
     20282      1284  MEOH      LP1B           14.8438319176      -35.5918874962      -11.2333883385  MEOH      592             0.0000000000
     20283      1285  MEOH      C1            -14.1723224480      -15.6435969796       -9.5971248630  MEOH      593             0.0000000000
     20284      1285  MEOH      DC1           -14.1776364762      -15.6544368320       -9.5916859327  MEOH      593             0.0000000000
     20285      1285  MEOH      O1            -13.1177988852      -14.7892953062      -10.0409775456  MEOH      593             0.0000000000
     20286      1285  MEOH      DO1           -13.1310295773      -14.7925252133      -10.0392124498  MEOH      593             0.0000000000
     20287      1285  MEOH      HO1           -12.3932465541      -14.8116225031       -9.3964425065  MEOH      593             0.0000000000
     20288      1285  MEOH      HO2           -12.9492519384      -15.0246714460      -10.9667690986  MEOH      593             0.0000000000
     20289      1285  MEOH      H1A           -15.0034153283      -15.6195718825      -10.3340294831  MEOH      593             0.0000000000
     20290      1285  MEOH      H1B           -14.5473322714      -15.3089792652       -8.6063072112  MEOH      593             0.0000000000
     20291      1285  MEOH      H1C           -13.8103046249      -16.6911446769       -9.5202618803  MEOH      593             0.0000000000
     20292      1285  MEOH      LP1A          -12.8963841165      -14.9682852095      -10.2445410855  MEOH      593             0.0000000000
     20293      1285  MEOH      LP1B          -13.1685124641      -14.4643723067       -9.9211727990  MEOH      593             0.0000000000
     20294      1286  MEOH      C1             29.6863499486      -18.7083340848      -18.0824517437  MEOH      594             0.0000000000
     20295      1286  MEOH      DC1            29.6864005548      -18.6957587368      -18.0573665903  MEOH      594             0.0000000000
     20296      1286  MEOH      O1             29.9055041492      -19.5133792523      -19.2235754321  MEOH      594             0.0000000000
     20297      1286  MEOH      DO1            29.9101529392      -19.5018015710      -19.2065849236  MEOH      594             0.0000000000
     20298      1286  MEOH      HO1            29.1875480527      -19.3765295690      -19.8613145705  MEOH      594             0.0000000000
     20299      1286  MEOH      HO2            30.8462687731      -19.4646279381      -19.4548441757  MEOH      594             0.0000000000
     20300      1286  MEOH      H1A            30.3228227159      -19.0866906538      -17.2541584846  MEOH      594             0.0000000000
     20301      1286  MEOH      H1B            28.6191489297      -18.7553936023      -17.7771840111  MEOH      594             0.0000000000
     20302      1286  MEOH      H1C            29.9645797701      -17.6581349164      -18.3148111068  MEOH      594             0.0000000000
     20303      1286  MEOH      LP1A           30.0993552937      -19.3394152486      -19.4573664909  MEOH      594             0.0000000000
     20304      1286  MEOH      LP1B           29.7584241705      -19.8277375421      -19.1783388816  MEOH      594             0.0000000000
     20305      1287  MEOH      C1             34.1524534360      -12.8817251999       -4.5611563147  MEOH      595             0.0000000000
     20306      1287  MEOH      DC1            34.1508764185      -12.8803299353       -4.5742008317  MEOH      595             0.0000000000
     20307      1287  MEOH      O1             33.0102973632      -13.6351084496       -4.1531907610  MEOH      595             0.0000000000
     20308      1287  MEOH      DO1            33.0130459055      -13.6352085093       -4.1556728631  MEOH      595             0.0000000000
     20309      1287  MEOH      HO1            32.5097081382      -13.9055369359       -4.9387980815  MEOH      595             0.0000000000
     20310      1287  MEOH      HO2            33.3215308557      -14.2838976184       -3.5027245224  MEOH      595             0.0000000000
     20311      1287  MEOH      H1A            34.6604736575      -12.4745167371       -3.6609242755  MEOH      595             0.0000000000
     20312      1287  MEOH      H1B            33.8482272636      -12.0366557883       -5.2150868356  MEOH      595             0.0000000000
     20313      1287  MEOH      H1C            34.8628603450      -13.5434265148       -5.1013362786  MEOH      595             0.0000000000
     20314      1287  MEOH      LP1A           33.0926028493      -13.9745461390       -4.1306549675  MEOH      595             0.0000000000
     20315      1287  MEOH      LP1B           32.7395497248      -13.4207189430       -4.0963325535  MEOH      595             0.0000000000
     20316      1288  MEOH      C1            -12.8934621964       14.8614241974        1.5791285107  MEOH      596             0.0000000000
     20317      1288  MEOH      DC1           -12.8954509269       14.8590854390        1.5666741629  MEOH      596             0.0000000000
     20318      1288  MEOH      O1            -12.4308528900       13.6070820931        1.0712714637  MEOH      596             0.0000000000
     20319      1288  MEOH      DO1           -12.4224616080       13.6059312359        1.0640938675  MEOH      596             0.0000000000
     20320      1288  MEOH      HO1           -12.7561101615       12.9294217924        1.6843654408  MEOH      596             0.0000000000
     20321      1288  MEOH      HO2           -12.6783449047       13.5903383019        0.1335255769  MEOH      596             0.0000000000
     20322      1288  MEOH      H1A           -12.4676325682       15.6915318668        0.9758778290  MEOH      596             0.0000000000
     20323      1288  MEOH      H1B           -12.5807026274       14.9813032881        2.6384355751  MEOH      596             0.0000000000
     20324      1288  MEOH      H1C           -14.0023419855       14.9116172375        1.5323602256  MEOH      596             0.0000000000
     20325      1288  MEOH      LP1A          -12.6644444305       13.4755553464        0.8462476714  MEOH      596             0.0000000000
     20326      1288  MEOH      LP1B          -12.1147257921       13.5340434286        1.2025307928  MEOH      596             0.0000000000
     20327      1289  MEOH      C1             -4.7096597310      -37.0427771854      -33.5253749683  MEOH      597             0.0000000000
     20328      1289  MEOH      DC1            -4.7024119631      -37.0431867274      -33.5220322810  MEOH      597             0.0000000000
     20329      1289  MEOH      O1             -3.8536528033      -37.3591769696      -32.4457326330  MEOH      597             0.0000000000
     20330      1289  MEOH      DO1            -3.8462823129      -37.3523770255      -32.4448785009  MEOH      597             0.0000000000
     20331      1289  MEOH      HO1            -3.0280864696      -36.8797268168      -32.6173944509  MEOH      597             0.0000000000
     20332      1289  MEOH      HO2            -4.3717229225      -37.1189442941      -31.6616461488  MEOH      597             0.0000000000
     20333      1289  MEOH      H1A            -5.5542055161      -37.7502988420      -33.6684711681  MEOH      597             0.0000000000
     20334      1289  MEOH      H1B            -4.1586942480      -36.9798963098      -34.4880815873  MEOH      597             0.0000000000
     20335      1289  MEOH      H1C            -5.1739905959      -36.0812884602      -33.2183614835  MEOH      597             0.0000000000
     20336      1289  MEOH      LP1A           -3.9006481677      -37.1307187585      -32.1847761586  MEOH      597             0.0000000000
     20337      1289  MEOH      LP1B           -3.6698881801      -37.6478309161      -32.5192816808  MEOH      597             0.0000000000
     20338      1290  MEOH      C1             19.4284932410      -12.3913761685      -29.5770997574  MEOH      598             0.0000000000
     20339      1290  MEOH      DC1            19.4336526988      -12.3971613548      -29.5732162957  MEOH      598             0.0000000000
     20340      1290  MEOH      O1             19.7489011164      -11.2033151748      -28.8603821574  MEOH      598             0.0000000000
     20341      1290  MEOH      DO1            19.7539353451      -11.2175481944      -28.8520310086  MEOH      598             0.0000000000
     20342      1290  MEOH      HO1            20.7153430909      -11.1461575775      -28.8001914688  MEOH      598             0.0000000000
     20343      1290  MEOH      HO2            19.2781352215      -10.4998822132      -29.3341558814  MEOH      598             0.0000000000
     20344      1290  MEOH      H1A            18.3304018119      -12.4361443532      -29.7399248890  MEOH      598             0.0000000000
     20345      1290  MEOH      H1B            19.7375162379      -13.2939673149      -29.0077536325  MEOH      598             0.0000000000
     20346      1290  MEOH      H1C            19.9366924941      -12.3839229980      -30.5650263591  MEOH      598             0.0000000000
     20347      1290  MEOH      LP1A           19.7778786021      -10.9339612631      -29.0819871563  MEOH      598             0.0000000000
     20348      1290  MEOH      LP1B           19.7626099665      -11.2705733971      -28.5171790121  MEOH      598             0.0000000000
     20349      1291  MEOH      C1             23.8498084501       -6.0166765385      -20.6400769208  MEOH      599             0.0000000000
     20350      1291  MEOH      DC1            23.8278486713       -6.0202569992      -20.6221673213  MEOH      599             0.0000000000
     20351      1291  MEOH      O1             22.7675528085       -5.0979579613      -20.8195506445  MEOH      599             0.0000000000
     20352      1291  MEOH      DO1            22.7529116916       -5.0931481889      -20.8049532441  MEOH      599             0.0000000000
     20353      1291  MEOH      HO1            22.9570921003       -4.6586502370      -21.6633418401  MEOH      599             0.0000000000
     20354      1291  MEOH      HO2            21.9554086092       -5.6160614826      -20.7060141278  MEOH      599             0.0000000000
     20355      1291  MEOH      H1A            23.8371998524       -6.4550492208      -19.6192971133  MEOH      599             0.0000000000
     20356      1291  MEOH      H1B            24.8176247296       -5.5017040561      -20.8202323856  MEOH      599             0.0000000000
     20357      1291  MEOH      H1C            23.7998792777       -6.8376850276      -21.3869190329  MEOH      599             0.0000000000
     20358      1291  MEOH      LP1A           22.5042359057       -5.2547303083      -20.9886264852  MEOH      599             0.0000000000
     20359      1291  MEOH      LP1B           22.8452123203       -4.7909229786      -20.6705589680  MEOH      599             0.0000000000
     20360      1292  MEOH      C1            -29.5599945049       23.7608145547       21.5877042961  MEOH      600             0.0000000000
     20361      1292  MEOH      DC1           -29.5643521024       23.7624369542       21.5961984937  MEOH      600             0.0000000000
     20362      1292  MEOH      O1            -30.4762829823       23.4654907431       22.6476208626  MEOH      600             0.0000000000
     20363      1292  MEOH      DO1           -30.4734433326       23.4666912104       22.6592890684  MEOH      600             0.0000000000
     20364      1292  MEOH      HO1           -29.9640695429       23.4249527701       23.4703565828  MEOH      600             0.0000000000
     20365      1292  MEOH      HO2           -31.2057651923       24.0980715237       22.5548994426  MEOH      600             0.0000000000
     20366      1292  MEOH      H1A           -30.1017444958       23.7764557843       20.6178675567  MEOH      600             0.0000000000
     20367      1292  MEOH      H1B           -28.7606143325       22.9912395108       21.5323274756  MEOH      600             0.0000000000
     20368      1292  MEOH      H1C           -29.0829376492       24.7495683254       21.7583024710  MEOH      600             0.0000000000
     20369      1292  MEOH      LP1A          -30.6068291631       23.7623815810       22.7792017315  MEOH      600             0.0000000000
     20370      1292  MEOH      LP1B          -30.5075945968       23.1189823073       22.6857192450  MEOH      600             0.0000000000
     20371      1293  MEOH      C1            -31.1623913988       17.3495681012       18.3449420126  MEOH      601             0.0000000000
     20372      1293  MEOH      DC1           -31.1632670780       17.3528249158       18.3500442974  MEOH      601             0.0000000000
     20373      1293  MEOH      O1            -31.3173630075       18.7570531679       18.1527468465  MEOH      601             0.0000000000
     20374      1293  MEOH      DO1           -31.3310706550       18.7630915106       18.1605188790  MEOH      601             0.0000000000
     20375      1293  MEOH      HO1           -31.2729071364       18.9119626064       17.1962288167  MEOH      601             0.0000000000
     20376      1293  MEOH      HO2           -32.0910253147       19.0161134366       18.6773747262  MEOH      601             0.0000000000
     20377      1293  MEOH      H1A           -30.9690499541       17.1324244099       19.4172240203  MEOH      601             0.0000000000
     20378      1293  MEOH      H1B           -30.3094696486       16.9744981403       17.7398238321  MEOH      601             0.0000000000
     20379      1293  MEOH      H1C           -32.0911034731       16.8262560566       18.0319573658  MEOH      601             0.0000000000
     20380      1293  MEOH      LP1A          -31.6566458058       18.8368814748       18.1208936800  MEOH      601             0.0000000000
     20381      1293  MEOH      LP1B          -31.0049635533       18.9144873083       18.1637501417  MEOH      601             0.0000000000
     20382      1294  MEOH      C1            -25.4822866590       -7.3163151588       31.5880733457  MEOH      602             0.0000000000
     20383      1294  MEOH      DC1           -25.4920943569       -7.3116904318       31.5827611449  MEOH      602             0.0000000000
     20384      1294  MEOH      O1            -24.7333500206       -6.2278121866       31.0445808572  MEOH      602             0.0000000000
     20385      1294  MEOH      DO1           -24.7536026190       -6.2214929527       31.0140349340  MEOH      602             0.0000000000
     20386      1294  MEOH      HO1           -23.9589332161       -6.5898870839       30.5862355913  MEOH      602             0.0000000000
     20387      1294  MEOH      HO2           -25.3659441383       -5.6041381688       30.6550229003  MEOH      602             0.0000000000
     20388      1294  MEOH      H1A           -26.1641289997       -6.9425574570       32.3816205748  MEOH      602             0.0000000000
     20389      1294  MEOH      H1B           -24.7866162707       -8.0591522186       32.0336704890  MEOH      602             0.0000000000
     20390      1294  MEOH      H1C           -26.0789233371       -7.8039722128       30.7877382458  MEOH      602             0.0000000000
     20391      1294  MEOH      LP1A          -24.8482982093       -6.1523041891       30.7227339119  MEOH      602             0.0000000000
     20392      1294  MEOH      LP1B          -24.5005608473       -6.1135074099       31.2796204684  MEOH      602             0.0000000000
     20393      1295  MEOH      C1            -11.0386399901      -28.3180853085       -3.6549639400  MEOH      603             0.0000000000
     20394      1295  MEOH      DC1           -11.0546210812      -28.3115772783       -3.6463289086  MEOH      603             0.0000000000
     20395      1295  MEOH      O1            -10.7423088007      -28.8517714765       -4.9496018161  MEOH      603             0.0000000000
     20396      1295  MEOH      DO1           -10.7568525351      -28.8429615653       -4.9445565023  MEOH      603             0.0000000000
     20397      1295  MEOH      HO1           -10.6441015831      -28.1223906212       -5.5814711936  MEOH      603             0.0000000000
     20398      1295  MEOH      HO2            -9.9954585704      -29.4554343853       -4.8128325694  MEOH      603             0.0000000000
     20399      1295  MEOH      H1A           -11.0032259754      -29.1354613904       -2.9033236071  MEOH      603             0.0000000000
     20400      1295  MEOH      H1B           -12.0525261463      -27.8638629926       -3.6488035350  MEOH      603             0.0000000000
     20401      1295  MEOH      H1C           -10.2804184054      -27.5556411958       -3.3755001614  MEOH      603             0.0000000000
     20402      1295  MEOH      LP1A          -10.3962134151      -28.8866465977       -4.9883537199  MEOH      603             0.0000000000
     20403      1295  MEOH      LP1B          -11.0392388592      -28.9168031270       -5.1231052016  MEOH      603             0.0000000000
     20404      1296  MEOH      C1              5.4248203928      -28.5553268028      -22.2141822665  MEOH      604             0.0000000000
     20405      1296  MEOH      DC1             5.4344843798      -28.5699126896      -22.2104148049  MEOH      604             0.0000000000
     20406      1296  MEOH      O1              5.8287217501      -27.2095805782      -21.9565662309  MEOH      604             0.0000000000
     20407      1296  MEOH      DO1             5.8371981004      -27.2205108346      -21.9416541900  MEOH      604             0.0000000000
     20408      1296  MEOH      HO1             5.1285319752      -26.6301427183      -22.2955146726  MEOH      604             0.0000000000
     20409      1296  MEOH      HO2             6.1279468488      -27.1769772661      -21.0344483618  MEOH      604             0.0000000000
     20410      1296  MEOH      H1A             6.3054561762      -29.2280978209      -22.1355643674  MEOH      604             0.0000000000
     20411      1296  MEOH      H1B             4.9928290798      -28.6349057338      -23.2346584796  MEOH      604             0.0000000000
     20412      1296  MEOH      H1C             4.6550683201      -28.8665717157      -21.4759889642  MEOH      604             0.0000000000
     20413      1296  MEOH      LP1A            5.7170058890      -27.1095231958      -21.6403256791  MEOH      604             0.0000000000
     20414      1296  MEOH      LP1B            6.0178110991      -27.0879204809      -22.2247900904  MEOH      604             0.0000000000
     20415      1297  MEOH      C1            -16.0656846007       -1.1195737184       -8.9448413678  MEOH      605             0.0000000000
     20416      1297  MEOH      DC1           -16.0890865173       -1.1269492991       -8.9437116424  MEOH      605             0.0000000000
     20417      1297  MEOH      O1            -16.9249490595       -0.1266399147       -8.3986635167  MEOH      605             0.0000000000
     20418      1297  MEOH      DO1           -16.9408275582       -0.1413370660       -8.3750955484  MEOH      605             0.0000000000
     20419      1297  MEOH      HO1           -16.3149188930        0.5539997331       -8.0738668627  MEOH      605             0.0000000000
     20420      1297  MEOH      HO2           -17.5185302171        0.1144863224       -9.1269625947  MEOH      605             0.0000000000
     20421      1297  MEOH      H1A           -16.6617909647       -1.8603114346       -9.5195463692  MEOH      605             0.0000000000
     20422      1297  MEOH      H1B           -15.4921779602       -1.6177428998       -8.1341388320  MEOH      605             0.0000000000
     20423      1297  MEOH      H1C           -15.3366863578       -0.6504414095       -9.6396776358  MEOH      605             0.0000000000
     20424      1297  MEOH      LP1A          -17.0139329008        0.1040640028       -8.6463681360  MEOH      605             0.0000000000
     20425      1297  MEOH      LP1B          -16.9897554802       -0.1965151207       -8.0618882453  MEOH      605             0.0000000000
     20426      1298  MEOH      C1            -35.3765991654      -25.1199780326       19.6380410191  MEOH      606             0.0000000000
     20427      1298  MEOH      DC1           -35.3689509198      -25.1248353536       19.6154054934  MEOH      606             0.0000000000
     20428      1298  MEOH      O1            -36.3209440675      -25.0017893639       20.6982495593  MEOH      606             0.0000000000
     20429      1298  MEOH      DO1           -36.3226868454      -24.9952877432       20.6801414953  MEOH      606             0.0000000000
     20430      1298  MEOH      HO1           -36.3420081802      -24.0794630159       20.9978666675  MEOH      606             0.0000000000
     20431      1298  MEOH      HO2           -37.1159727524      -25.4833315977       20.4208572970  MEOH      606             0.0000000000
     20432      1298  MEOH      H1A           -35.1337993350      -26.1943604710       19.4928803548  MEOH      606             0.0000000000
     20433      1298  MEOH      H1B           -34.4490494827      -24.5691415281       19.9036567810  MEOH      606             0.0000000000
     20434      1298  MEOH      H1C           -35.8126837265      -24.7068028474       18.7034622250  MEOH      606             0.0000000000
     20435      1298  MEOH      LP1A          -36.6384269020      -24.9319356829       20.5685379059  MEOH      606             0.0000000000
     20436      1298  MEOH      LP1B          -36.1644875884      -25.0629914503       21.0052930005  MEOH      606             0.0000000000
     20437      1299  MEOH      C1             10.2907122772       25.0178083499      -14.4187751024  MEOH      607             0.0000000000
     20438      1299  MEOH      DC1            10.2908986437       25.0232901906      -14.4149083905  MEOH      607             0.0000000000
     20439      1299  MEOH      O1             10.6192188316       26.3031875909      -13.8823708602  MEOH      607             0.0000000000
     20440      1299  MEOH      DO1            10.6232000016       26.3177606677      -13.8780222691  MEOH      607             0.0000000000
     20441      1299  MEOH      HO1            10.5331256449       26.2150477494      -12.9202277667  MEOH      607             0.0000000000
     20442      1299  MEOH      HO2            11.4653984921       26.5493559068      -14.2876869622  MEOH      607             0.0000000000
     20443      1299  MEOH      H1A            10.2416362377       25.0725244378      -15.5273411546  MEOH      607             0.0000000000
     20444      1299  MEOH      H1B             9.3041848960       24.6860222949      -14.0301843900  MEOH      607             0.0000000000
     20445      1299  MEOH      H1C            11.0688293245       24.2775819688      -14.1343111048  MEOH      607             0.0000000000
     20446      1299  MEOH      LP1A           10.9634930021       26.3235741724      -13.8227077823  MEOH      607             0.0000000000
     20447      1299  MEOH      LP1B           10.3317010355       26.5018201108      -13.8629122127  MEOH      607             0.0000000000
     20448      1300  MEOH      C1             -9.4784906719       26.6847173344      -31.2572319563  MEOH      608             0.0000000000
     20449      1300  MEOH      DC1            -9.4739515286       26.6743740685      -31.2642691152  MEOH      608             0.0000000000
     20450      1300  MEOH      O1             -9.7652920431       28.0744863664      -31.1120844583  MEOH      608             0.0000000000
     20451      1300  MEOH      DO1            -9.7633189182       28.0719692798      -31.1133426930  MEOH      608             0.0000000000
     20452      1300  MEOH      HO1           -10.2951156406       28.1774179854      -30.3061117304  MEOH      608             0.0000000000
     20453      1300  MEOH      HO2            -8.9127785050       28.5293635970      -31.1969807031  MEOH      608             0.0000000000
     20454      1300  MEOH      H1A            -8.9193924211       26.5093350794      -32.2011446700  MEOH      608             0.0000000000
     20455      1300  MEOH      H1B           -10.4213572670       26.0980503332      -31.2910759154  MEOH      608             0.0000000000
     20456      1300  MEOH      H1C            -8.8584084642       26.3407598196      -30.4019470416  MEOH      608             0.0000000000
     20457      1300  MEOH      LP1A           -9.5112998567       28.2306220473      -30.9287551960  MEOH      608             0.0000000000
     20458      1300  MEOH      LP1B          -10.0615720015       28.1538194958      -31.2806799530  MEOH      608             0.0000000000
     20459      1301  MEOH      C1             -6.8010741188       12.0468367830       27.4320885740  MEOH      609             0.0000000000
     20460      1301  MEOH      DC1            -6.8051626060       12.0707692184       27.4351543195  MEOH      609             0.0000000000
     20461      1301  MEOH      O1             -7.1180054283       13.2798215334       26.7714932367  MEOH      609             0.0000000000
     20462      1301  MEOH      DO1            -7.1152878095       13.3034641095       26.7795711957  MEOH      609             0.0000000000
     20463      1301  MEOH      HO1            -6.9924695043       13.0958840994       25.8274022706  MEOH      609             0.0000000000
     20464      1301  MEOH      HO2            -8.0131043018       13.5057904588       27.0692113137  MEOH      609             0.0000000000
     20465      1301  MEOH      H1A            -6.9935240324       12.1226429861       28.5236642472  MEOH      609             0.0000000000
     20466      1301  MEOH      H1B            -5.7382126788       11.7688539388       27.2666434176  MEOH      609             0.0000000000
     20467      1301  MEOH      H1C            -7.4110206458       11.2162319002       27.0168997450  MEOH      609             0.0000000000
     20468      1301  MEOH      LP1A           -7.4599611266       13.2917097881       26.6978388424  MEOH      609             0.0000000000
     20469      1301  MEOH      LP1B           -6.8311646699       13.4786236064       26.7450335489  MEOH      609             0.0000000000
     20470      1302  MEOH      C1             22.6424387944       10.1521208172       26.2003691550  MEOH      610             0.0000000000
     20471      1302  MEOH      DC1            22.6533597993       10.1577583804       26.2058432636  MEOH      610             0.0000000000
     20472      1302  MEOH      O1             21.2779378891       10.4238830082       25.8726033286  MEOH      610             0.0000000000
     20473      1302  MEOH      DO1            21.2857457837       10.4405891256       25.8810999713  MEOH      610             0.0000000000
     20474      1302  MEOH      HO1            20.7057699605        9.8560127749       26.4120912898  MEOH      610             0.0000000000
     20475      1302  MEOH      HO2            21.1808303830       11.3877321493       25.8229549095  MEOH      610             0.0000000000
     20476      1302  MEOH      H1A            23.2868700468       10.5944987107       25.4108559118  MEOH      610             0.0000000000
     20477      1302  MEOH      H1B            22.8153414399        9.0551221415       26.2323000301  MEOH      610             0.0000000000
     20478      1302  MEOH      H1C            22.9117097259       10.6087190174       27.1767565018  MEOH      610             0.0000000000
     20479      1302  MEOH      LP1A           21.1554584618       10.6821503087       26.0745854848  MEOH      610             0.0000000000
     20480      1302  MEOH      LP1B           21.1752733248       10.2189870137       25.6080704976  MEOH      610             0.0000000000
     20481      1303  MEOH      C1             11.5087231954      -21.4581044643        3.4452296982  MEOH      611             0.0000000000
     20482      1303  MEOH      DC1            11.5173005700      -21.4484536764        3.4420327676  MEOH      611             0.0000000000
     20483      1303  MEOH      O1             12.0917013284      -21.8761408261        2.2131874910  MEOH      611             0.0000000000
     20484      1303  MEOH      DO1            12.0939546823      -21.8573417477        2.2051690181  MEOH      611             0.0000000000
     20485      1303  MEOH      HO1            11.8645506883      -22.8116370319        2.0942360869  MEOH      611             0.0000000000
     20486      1303  MEOH      HO2            11.8388761865      -21.2190443466        1.5459516525  MEOH      611             0.0000000000
     20487      1303  MEOH      H1A            11.8034337506      -20.4076370085        3.6549552642  MEOH      611             0.0000000000
     20488      1303  MEOH      H1B            11.8595628963      -22.1085479374        4.2747812604  MEOH      611             0.0000000000
     20489      1303  MEOH      H1C            10.4019932409      -21.5278186938        3.3773346726  MEOH      611             0.0000000000
     20490      1303  MEOH      LP1A           11.8684912887      -21.8191174830        1.9497000785  MEOH      611             0.0000000000
     20491      1303  MEOH      LP1B           12.4170615029      -21.9928169877        2.2682095792  MEOH      611             0.0000000000
     20492      1304  MEOH      C1              8.4544515094      -34.4346817227       -7.4315420776  MEOH      612             0.0000000000
     20493      1304  MEOH      DC1             8.4657531388      -34.4392343603       -7.4510622112  MEOH      612             0.0000000000
     20494      1304  MEOH      O1              7.6508767795      -33.5318771549       -6.6883432305  MEOH      612             0.0000000000
     20495      1304  MEOH      DO1             7.6624125275      -33.5296609195       -6.7068931911  MEOH      612             0.0000000000
     20496      1304  MEOH      HO1             7.0359129409      -33.1100624383       -7.3086591355  MEOH      612             0.0000000000
     20497      1304  MEOH      HO2             7.2852893333      -34.0612322980       -5.9623756333  MEOH      612             0.0000000000
     20498      1304  MEOH      H1A             9.1526932616      -34.9147433960       -6.7129878015  MEOH      612             0.0000000000
     20499      1304  MEOH      H1B             9.0540534557      -33.8935171685       -8.1943916251  MEOH      612             0.0000000000
     20500      1304  MEOH      H1C             7.8341819963      -35.2322034108       -7.8936523329  MEOH      612             0.0000000000
     20501      1304  MEOH      LP1A            7.3670222147      -33.6965644516       -6.5666687455  MEOH      612             0.0000000000
     20502      1304  MEOH      LP1B            7.8047184570      -33.2177829716       -6.6750172282  MEOH      612             0.0000000000
     20503      1305  MEOH      C1            -33.8287188875       34.8437763294      -20.6341015741  MEOH      613             0.0000000000
     20504      1305  MEOH      DC1           -33.8410562955       34.8439535226      -20.6426913859  MEOH      613             0.0000000000
     20505      1305  MEOH      O1            -33.8257549804       36.1903738297      -20.1458615039  MEOH      613             0.0000000000
     20506      1305  MEOH      DO1           -33.8398838653       36.1942275104      -20.1617701651  MEOH      613             0.0000000000
     20507      1305  MEOH      HO1           -33.2484968246       36.7356881120      -20.7029120904  MEOH      613             0.0000000000
     20508      1305  MEOH      HO2           -34.7414872776       36.4292283500      -19.9330637646  MEOH      613             0.0000000000
     20509      1305  MEOH      H1A           -34.2375968814       34.1706136934      -19.8505252514  MEOH      613             0.0000000000
     20510      1305  MEOH      H1B           -32.7964969266       34.5135049218      -20.8785593849  MEOH      613             0.0000000000
     20511      1305  MEOH      H1C           -34.4460058006       34.7617380970      -21.5541817855  MEOH      613             0.0000000000
     20512      1305  MEOH      LP1A          -34.0843340920       36.3725844489      -20.2956484636  MEOH      613             0.0000000000
     20513      1305  MEOH      LP1B          -33.5739201094       36.2302165336      -19.9060871168  MEOH      613             0.0000000000
     20514      1306  MEOH      C1            -22.8097507092       23.1773105845       26.4852063969  MEOH      614             0.0000000000
     20515      1306  MEOH      DC1           -22.8082648851       23.1747563043       26.4885126120  MEOH      614             0.0000000000
     20516      1306  MEOH      O1            -22.6097733934       21.8019963457       26.8192165990  MEOH      614             0.0000000000
     20517      1306  MEOH      DO1           -22.6102205733       21.8042835220       26.8293754100  MEOH      614             0.0000000000
     20518      1306  MEOH      HO1           -22.9969301629       21.2691584162       26.1071117074  MEOH      614             0.0000000000
     20519      1306  MEOH      HO2           -21.6651246162       21.7145041666       27.0214140457  MEOH      614             0.0000000000
     20520      1306  MEOH      H1A           -22.3920724303       23.8167609811       27.2920329245  MEOH      614             0.0000000000
     20521      1306  MEOH      H1B           -23.8932681361       23.3922620395       26.3664340967  MEOH      614             0.0000000000
     20522      1306  MEOH      H1C           -22.2844264160       23.4317837280       25.5399028441  MEOH      614             0.0000000000
     20523      1306  MEOH      LP1A          -22.3025073888       21.6916330671       26.6930914660  MEOH      614             0.0000000000
     20524      1306  MEOH      LP1B          -22.8782311738       21.6851211417       27.0109732334  MEOH      614             0.0000000000
     20525      1307  MEOH      C1             12.1535560691        9.8304832102       -6.9217765460  MEOH      615             0.0000000000
     20526      1307  MEOH      DC1            12.1977564471        9.8206699752       -6.9037516490  MEOH      615             0.0000000000
     20527      1307  MEOH      O1             13.2414235825        9.5709997004       -6.0421039249  MEOH      615             0.0000000000
     20528      1307  MEOH      DO1            13.2691795734        9.5681286390       -6.0326196452  MEOH      615             0.0000000000
     20529      1307  MEOH      HO1            13.6965511934        8.7824993911       -6.3768069583  MEOH      615             0.0000000000
     20530      1307  MEOH      HO2            13.6859957703       10.4230936512       -5.9109876827  MEOH      615             0.0000000000
     20531      1307  MEOH      H1A            11.5254508285       10.6407914132       -6.4937515194  MEOH      615             0.0000000000
     20532      1307  MEOH      H1B            11.5131912347        8.9351427669       -7.0721739179  MEOH      615             0.0000000000
     20533      1307  MEOH      H1C            12.5126895591       10.1516746849       -7.9228660396  MEOH      615             0.0000000000
     20534      1307  MEOH      LP1A           13.5260048519        9.7442707780       -6.1492983034  MEOH      615             0.0000000000
     20535      1307  MEOH      LP1B           13.1369474131        9.3631872817       -5.7805724188  MEOH      615             0.0000000000
     20536      1308  MEOH      C1              4.0341838113      -18.8163304614       17.4061446969  MEOH      616             0.0000000000
     20537      1308  MEOH      DC1             4.0200533488      -18.8249300569       17.4163650913  MEOH      616             0.0000000000
     20538      1308  MEOH      O1              4.2298460377      -17.4024334333       17.4905710926  MEOH      616             0.0000000000
     20539      1308  MEOH      DO1             4.2267754526      -17.4126469664       17.4921210555  MEOH      616             0.0000000000
     20540      1308  MEOH      HO1             3.8445759179      -17.0527739596       18.3092316986  MEOH      616             0.0000000000
     20541      1308  MEOH      HO2             5.1664302291      -17.2552406896       17.2855239063  MEOH      616             0.0000000000
     20542      1308  MEOH      H1A             4.3392009470      -19.1725442856       16.3989717930  MEOH      616             0.0000000000
     20543      1308  MEOH      H1B             2.9669117184      -19.0717023167       17.5794551024  MEOH      616             0.0000000000
     20544      1308  MEOH      H1C             4.6799886522      -19.3294784476       18.1504136350  MEOH      616             0.0000000000
     20545      1308  MEOH      LP1A            4.5346736371      -17.3329524000       17.6479004308  MEOH      616             0.0000000000
     20546      1308  MEOH      LP1B            3.9632416935      -17.2353271442       17.3372817850  MEOH      616             0.0000000000
     20547      1309  MEOH      C1             11.3054753566       36.1944162437      -29.4847658829  MEOH      617             0.0000000000
     20548      1309  MEOH      DC1            11.2988997351       36.1743004910      -29.4730154477  MEOH      617             0.0000000000
     20549      1309  MEOH      O1             12.6243088690       35.8119718402      -29.0859080751  MEOH      617             0.0000000000
     20550      1309  MEOH      DO1            12.6190152194       35.7890913322      -29.0744346465  MEOH      617             0.0000000000
     20551      1309  MEOH      HO1            12.7644884779       34.8787173026      -29.3101526856  MEOH      617             0.0000000000
     20552      1309  MEOH      HO2            13.2015832104       36.4719511718      -29.5007352892  MEOH      617             0.0000000000
     20553      1309  MEOH      H1A            11.1608147966       37.2893606377      -29.3643869125  MEOH      617             0.0000000000
     20554      1309  MEOH      H1B            10.5441741607       35.6902451820      -28.8518732918  MEOH      617             0.0000000000
     20555      1309  MEOH      H1C            11.1558192477       35.9524055686      -30.5587094954  MEOH      617             0.0000000000
     20556      1309  MEOH      LP1A           12.8505294951       35.8734611191      -29.3457990078  MEOH      617             0.0000000000
     20557      1309  MEOH      LP1B           12.6208006605       35.6970738268      -28.7553235338  MEOH      617             0.0000000000
     20558      1310  MEOH      C1             10.3843356976        8.2017741624       11.4723488702  MEOH      618             0.0000000000
     20559      1310  MEOH      DC1            10.3848375198        8.1975275551       11.4644512241  MEOH      618             0.0000000000
     20560      1310  MEOH      O1             11.4582414025        7.2709347599       11.6023663620  MEOH      618             0.0000000000
     20561      1310  MEOH      DO1            11.4422219625        7.2510234978       11.5791780728  MEOH      618             0.0000000000
     20562      1310  MEOH      HO1            11.3406343892        6.7481707111       12.4109369164  MEOH      618             0.0000000000
     20563      1310  MEOH      HO2            11.6643729144        6.9045232632       10.7282082443  MEOH      618             0.0000000000
     20564      1310  MEOH      H1A            10.6983208086        9.0313500252       10.8033658824  MEOH      618             0.0000000000
     20565      1310  MEOH      H1B            10.1280705817        8.6282150854       12.4657256020  MEOH      618             0.0000000000
     20566      1310  MEOH      H1C             9.4906168177        7.6977978809       11.0462086681  MEOH      618             0.0000000000
     20567      1310  MEOH      LP1A           11.3779005418        6.9719215763       11.4391595542  MEOH      618             0.0000000000
     20568      1310  MEOH      LP1B           11.7233044614        7.4176849327       11.7775975282  MEOH      618             0.0000000000
     20569      1311  MEOH      C1             -3.5145007126       16.9615957416        4.9742575275  MEOH      619             0.0000000000
     20570      1311  MEOH      DC1            -3.5056455496       16.9627250762        4.9737948010  MEOH      619             0.0000000000
     20571      1311  MEOH      O1             -2.6766238949       16.7728740808        3.8283899820  MEOH      619             0.0000000000
     20572      1311  MEOH      DO1            -2.6655097418       16.7722576445        3.8212295721  MEOH      619             0.0000000000
     20573      1311  MEOH      HO1            -2.2013432339       15.9407919780        3.9788814022  MEOH      619             0.0000000000
     20574      1311  MEOH      HO2            -3.2594455230       16.8677936315        3.0588386652  MEOH      619             0.0000000000
     20575      1311  MEOH      H1A            -4.0736344092       17.9167532202        4.8774861416  MEOH      619             0.0000000000
     20576      1311  MEOH      H1B            -2.8984295545       16.9891478737        5.8983885832  MEOH      619             0.0000000000
     20577      1311  MEOH      H1C            -4.2464757679       16.1301589138        5.0593828549  MEOH      619             0.0000000000
     20578      1311  MEOH      LP1A           -2.8503531273       16.5968260145        3.5807506633  MEOH      619             0.0000000000
     20579      1311  MEOH      LP1B           -2.3667384405       16.9271810056        3.8799688352  MEOH      619             0.0000000000
     20580      1312  MEOH      C1             35.1352372647      -35.7421919677       29.5716012694  MEOH      620             0.0000000000
     20581      1312  MEOH      DC1            35.1425174288      -35.7413678507       29.5754717982  MEOH      620             0.0000000000
     20582      1312  MEOH      O1             34.2234440605      -36.6495635742       28.9482891157  MEOH      620             0.0000000000
     20583      1312  MEOH      DO1            34.2282410796      -36.6480614107       28.9488782494  MEOH      620             0.0000000000
     20584      1312  MEOH      HO1            34.0116068534      -37.3448017943       29.5906821535  MEOH      620             0.0000000000
     20585      1312  MEOH      HO2            33.5129241450      -36.0984904912       28.5844486184  MEOH      620             0.0000000000
     20586      1312  MEOH      H1A            35.4396096872      -34.9652439216       28.8380958751  MEOH      620             0.0000000000
     20587      1312  MEOH      H1B            36.0379600965      -36.2888254466       29.9188826097  MEOH      620             0.0000000000
     20588      1312  MEOH      H1C            34.6444709867      -35.2452559333       30.4356174950  MEOH      620             0.0000000000
     20589      1312  MEOH      LP1A           33.8941043686      -36.5436200835       29.0013112252  MEOH      620             0.0000000000
     20590      1312  MEOH      LP1B           34.4003494512      -36.9011811139       28.7812768513  MEOH      620             0.0000000000
     20591      1313  MEOH      C1            -22.8690600587       35.9313456395      -17.6122370944  MEOH      621             0.0000000000
     20592      1313  MEOH      DC1           -22.8676209909       35.9401043038      -17.6075092395  MEOH      621             0.0000000000
     20593      1313  MEOH      O1            -23.9360742429       35.2207449976      -18.2321196758  MEOH      621             0.0000000000
     20594      1313  MEOH      DO1           -23.9407677213       35.2334518285      -18.2225439728  MEOH      621             0.0000000000
     20595      1313  MEOH      HO1           -24.1485559271       34.4393730343      -17.6980696886  MEOH      621             0.0000000000
     20596      1313  MEOH      HO2           -24.6028142788       35.8805061885      -18.4792489868  MEOH      621             0.0000000000
     20597      1313  MEOH      H1A           -22.4498400539       36.6262140918      -18.3710080885  MEOH      621             0.0000000000
     20598      1313  MEOH      H1B           -22.0604127299       35.2343937465      -17.3045545343  MEOH      621             0.0000000000
     20599      1313  MEOH      H1C           -23.2387794582       36.5068587188      -16.7367867750  MEOH      621             0.0000000000
     20600      1313  MEOH      LP1A          -24.2435095467       35.3416128520      -18.1164715207  MEOH      621             0.0000000000
     20601      1313  MEOH      LP1B          -23.8083464073       34.9882088809      -18.4604014194  MEOH      621             0.0000000000
     20602      1314  MEOH      C1             19.4013702190        2.0246041720      -26.4170774767  MEOH      622             0.0000000000
     20603      1314  MEOH      DC1            19.4107823310        2.0222680372      -26.4228007540  MEOH      622             0.0000000000
     20604      1314  MEOH      O1             20.3088429909        3.0595098931      -26.7987063933  MEOH      622             0.0000000000
     20605      1314  MEOH      DO1            20.3180776241        3.0585810541      -26.8092225176  MEOH      622             0.0000000000
     20606      1314  MEOH      HO1            20.4105741267        3.6227649409      -26.0155751609  MEOH      622             0.0000000000
     20607      1314  MEOH      HO2            21.0705220287        2.6114800655      -27.1987242913  MEOH      622             0.0000000000
     20608      1314  MEOH      H1A            19.1839919977        1.3774415424      -27.2935751899  MEOH      622             0.0000000000
     20609      1314  MEOH      H1B            18.4510944685        2.4681026119      -26.0501903929  MEOH      622             0.0000000000
     20610      1314  MEOH      H1C            19.8481169951        1.3972585497      -25.6163429464  MEOH      622             0.0000000000
     20611      1314  MEOH      LP1A           20.6381896095        2.9591139015      -26.7358458361  MEOH      622             0.0000000000
     20612      1314  MEOH      LP1B           20.1324111002        3.3287939777      -26.9360303522  MEOH      622             0.0000000000
     20613      1315  MEOH      C1             -0.3844298078      -14.9908357105      -30.0533381358  MEOH      623             0.0000000000
     20614      1315  MEOH      DC1            -0.3814142540      -14.9989471026      -30.0487463773  MEOH      623             0.0000000000
     20615      1315  MEOH      O1              0.0089534178      -14.2750866914      -28.8838108841  MEOH      623             0.0000000000
     20616      1315  MEOH      DO1             0.0237842245      -14.2788068443      -28.8820540117  MEOH      623             0.0000000000
     20617      1315  MEOH      HO1            -0.1272831132      -13.3330469265      -29.0706281492  MEOH      623             0.0000000000
     20618      1315  MEOH      HO2            -0.4815466449      -14.6807435120      -28.1518599074  MEOH      623             0.0000000000
     20619      1315  MEOH      H1A            -0.2297499972      -16.0779931653      -29.8845666173  MEOH      623             0.0000000000
     20620      1315  MEOH      H1B             0.2227549332      -14.6688610753      -30.9262528078  MEOH      623             0.0000000000
     20621      1315  MEOH      H1C            -1.4567423884      -14.7998108301      -30.2723728962  MEOH      623             0.0000000000
     20622      1315  MEOH      LP1A           -0.2635744873      -14.2412950758      -28.6668162583  MEOH      623             0.0000000000
     20623      1315  MEOH      LP1B            0.3501519107      -14.1986523162      -28.8993471233  MEOH      623             0.0000000000
     20624      1316  MEOH      C1             23.4264591641      -12.6224326982       -9.6849937498  MEOH      624             0.0000000000
     20625      1316  MEOH      DC1            23.4124753914      -12.6252430822       -9.6894483518  MEOH      624             0.0000000000
     20626      1316  MEOH      O1             24.5261440015      -11.9075698740      -10.2539197065  MEOH      624             0.0000000000
     20627      1316  MEOH      DO1            24.5128014395      -11.9065285881      -10.2616099044  MEOH      624             0.0000000000
     20628      1316  MEOH      HO1            24.5435298987      -12.0515650836      -11.2130146501  MEOH      624             0.0000000000
     20629      1316  MEOH      HO2            24.5022058492      -11.0148755650       -9.8752063116  MEOH      624             0.0000000000
     20630      1316  MEOH      H1A            23.4338655012      -12.4983618794       -8.5809681259  MEOH      624             0.0000000000
     20631      1316  MEOH      H1B            23.5168915610      -13.7069927735       -9.9083151023  MEOH      624             0.0000000000
     20632      1316  MEOH      H1C            22.4709592881      -12.2287443318      -10.0928545811  MEOH      624             0.0000000000
     20633      1316  MEOH      LP1A           24.4266497513      -11.5830505600      -10.3392901290  MEOH      624             0.0000000000
     20634      1316  MEOH      LP1B           24.8126905788      -12.1085444623      -10.2533963692  MEOH      624             0.0000000000
     20635      1317  MEOH      C1              7.3416378957       19.3306302964        9.2955366924  MEOH      625             0.0000000000
     20636      1317  MEOH      DC1             7.3363792187       19.3126661380        9.2984726519  MEOH      625             0.0000000000
     20637      1317  MEOH      O1              7.3314408326       17.9697229088        9.7465585038  MEOH      625             0.0000000000
     20638      1317  MEOH      DO1             7.3252227101       17.9625245632        9.7511037536  MEOH      625             0.0000000000
     20639      1317  MEOH      HO1             6.9887824834       17.4199883553        9.0245632287  MEOH      625             0.0000000000
     20640      1317  MEOH      HO2             8.2204274240       17.8025327056       10.0967731185  MEOH      625             0.0000000000
     20641      1317  MEOH      H1A             7.7379839777       19.9960177868       10.0920856687  MEOH      625             0.0000000000
     20642      1317  MEOH      H1B             6.3118954258       19.6657877663        9.0473010865  MEOH      625             0.0000000000
     20643      1317  MEOH      H1C             7.9961518962       19.4428322998        8.4048385755  MEOH      625             0.0000000000
     20644      1317  MEOH      LP1A            7.6383585217       17.8175433127        9.6748444699  MEOH      625             0.0000000000
     20645      1317  MEOH      LP1B            7.0270542349       17.8979777303        9.9037253849  MEOH      625             0.0000000000
     20646      1318  MEOH      C1            -22.8490917329       18.0599601405       21.2666839934  MEOH      626             0.0000000000
     20647      1318  MEOH      DC1           -22.8293660031       18.0796094539       21.2686284724  MEOH      626             0.0000000000
     20648      1318  MEOH      O1            -24.1209397219       17.6074064955       20.8064511365  MEOH      626             0.0000000000
     20649      1318  MEOH      DO1           -24.1090303752       17.6269047679       20.8026522233  MEOH      626             0.0000000000
     20650      1318  MEOH      HO1           -24.7902353152       18.2985343490       20.9300864835  MEOH      626             0.0000000000
     20651      1318  MEOH      HO2           -23.9671348298       17.1917621561       19.9436163669  MEOH      626             0.0000000000
     20652      1318  MEOH      H1A           -22.1531796236       17.1946919710       21.3032671993  MEOH      626             0.0000000000
     20653      1318  MEOH      H1B           -22.9303750825       18.4777386283       22.2929272168  MEOH      626             0.0000000000
     20654      1318  MEOH      H1C           -22.4501376481       18.8286377525       20.5707735340  MEOH      626             0.0000000000
     20655      1318  MEOH      LP1A          -24.1589000971       17.6823555365       20.4666840822  MEOH      626             0.0000000000
     20656      1318  MEOH      LP1B          -24.2918252770       17.4464134546       21.0660264972  MEOH      626             0.0000000000
     20657      1319  MEOH      C1            -33.9014596070      -35.7598786036       -3.7139273976  MEOH      627             0.0000000000
     20658      1319  MEOH      DC1           -33.8906779027      -35.7593830408       -3.7200429602  MEOH      627             0.0000000000
     20659      1319  MEOH      O1            -34.8652190805      -36.7882246898       -3.9332308481  MEOH      627             0.0000000000
     20660      1319  MEOH      DO1           -34.8601496468      -36.7852208628       -3.9289301590  MEOH      627             0.0000000000
     20661      1319  MEOH      HO1           -35.0589491170      -36.8219276010       -4.8830901998  MEOH      627             0.0000000000
     20662      1319  MEOH      HO2           -34.5227880145      -37.5711394962       -3.4742260867  MEOH      627             0.0000000000
     20663      1319  MEOH      H1A           -33.7506559178      -35.6116085492       -2.6232417239  MEOH      627             0.0000000000
     20664      1319  MEOH      H1B           -34.2567694380      -34.8046341352       -4.1561761167  MEOH      627             0.0000000000
     20665      1319  MEOH      H1C           -32.9283508015      -36.0472339568       -4.1664836424  MEOH      627             0.0000000000
     20666      1319  MEOH      LP1A          -34.7037728553      -37.0939497198       -3.9877039825  MEOH      627             0.0000000000
     20667      1319  MEOH      LP1B          -35.1885575040      -36.6573951911       -3.9043188065  MEOH      627             0.0000000000
     20668      1320  MEOH      C1             33.6830447452       19.4787139182        5.1255674502  MEOH      628             0.0000000000
     20669      1320  MEOH      DC1            33.6705728356       19.4879658425        5.1286780870  MEOH      628             0.0000000000
     20670      1320  MEOH      O1             32.2734190777       19.4713529431        4.8856825088  MEOH      628             0.0000000000
     20671      1320  MEOH      DO1            32.2632375780       19.4730572287        4.8977237113  MEOH      628             0.0000000000
     20672      1320  MEOH      HO1            31.8620174841       20.0413243991        5.5540994954  MEOH      628             0.0000000000
     20673      1320  MEOH      HO2            32.1733221407       19.6951458310        3.9471744650  MEOH      628             0.0000000000
     20674      1320  MEOH      H1A            34.1861824188       18.8093144511        4.3954456554  MEOH      628             0.0000000000
     20675      1320  MEOH      H1B            33.9011196819       19.1167759634        6.1530718244  MEOH      628             0.0000000000
     20676      1320  MEOH      H1C            34.0891631969       20.5052026975        5.0002295460  MEOH      628             0.0000000000
     20677      1320  MEOH      LP1A           32.1889386794       19.7258492669        4.6607498889  MEOH      628             0.0000000000
     20678      1320  MEOH      LP1B           32.1234325580       19.2085354995        5.0615547216  MEOH      628             0.0000000000
     20679      1321  MEOH      C1             29.4620878859      -26.6424330452       -9.4497076867  MEOH      629             0.0000000000
     20680      1321  MEOH      DC1            29.4512346382      -26.6317050701       -9.4453853177  MEOH      629             0.0000000000
     20681      1321  MEOH      O1             29.1832854617      -25.4876295719      -10.2468767414  MEOH      629             0.0000000000
     20682      1321  MEOH      DO1            29.1669788018      -25.4714769746      -10.2369640646  MEOH      629             0.0000000000
     20683      1321  MEOH      HO1            30.0018633335      -24.9675283112      -10.2288504583  MEOH      629             0.0000000000
     20684      1321  MEOH      HO2            28.9110602882      -25.8425269158      -11.1075981424  MEOH      629             0.0000000000
     20685      1321  MEOH      H1A            28.6511828755      -27.3925601542       -9.5682968285  MEOH      629             0.0000000000
     20686      1321  MEOH      H1B            29.5460587253      -26.3586884941       -8.3788393806  MEOH      629             0.0000000000
     20687      1321  MEOH      H1C            30.4164195875      -27.1060138677       -9.7793511678  MEOH      629             0.0000000000
     20688      1321  MEOH      LP1A           29.2614399057      -25.5517665948      -10.5819563218  MEOH      629             0.0000000000
     20689      1321  MEOH      LP1B           29.0478499852      -25.2341380060      -10.0471287558  MEOH      629             0.0000000000
     20690      1322  MEOH      C1              4.1643051025      -13.2402035993       19.8356613863  MEOH      630             0.0000000000
     20691      1322  MEOH      DC1             4.1457545532      -13.2546135031       19.8376504631  MEOH      630             0.0000000000
     20692      1322  MEOH      O1              4.2626294581      -11.9069186771       20.3342484183  MEOH      630             0.0000000000
     20693      1322  MEOH      DO1             4.2441312501      -11.9084701497       20.3303040744  MEOH      630             0.0000000000
     20694      1322  MEOH      HO1             4.6841470331      -11.3716194382       19.6438299518  MEOH      630             0.0000000000
     20695      1322  MEOH      HO2             3.3972074233      -11.6852951215       20.7121739434  MEOH      630             0.0000000000
     20696      1322  MEOH      H1A             3.9566567677      -13.9282012356       20.6829290075  MEOH      630             0.0000000000
     20697      1322  MEOH      H1B             5.1208687264      -13.5386479684       19.3558301744  MEOH      630             0.0000000000
     20698      1322  MEOH      H1C             3.3568054377      -13.3019461630       19.0751003116  MEOH      630             0.0000000000
     20699      1322  MEOH      LP1A            3.9729431412      -11.7275287940       20.2542414960  MEOH      630             0.0000000000
     20700      1322  MEOH      LP1B            4.5638355506      -11.8658933537       20.5077183370  MEOH      630             0.0000000000
     20701      1323  MEOH      C1             16.5086060059      -31.0538924060       24.0931629394  MEOH      631             0.0000000000
     20702      1323  MEOH      DC1            16.4959891625      -31.0420652518       24.1008894652  MEOH      631             0.0000000000
     20703      1323  MEOH      O1             15.6844662014      -30.5770536912       25.1622431223  MEOH      631             0.0000000000
     20704      1323  MEOH      DO1            15.6722414241      -30.5683803248       25.1635910598  MEOH      631             0.0000000000
     20705      1323  MEOH      HO1            15.5452347235      -29.6276634256       25.0202124248  MEOH      631             0.0000000000
     20706      1323  MEOH      HO2            14.9334324298      -31.1884777560       25.2170964541  MEOH      631             0.0000000000
     20707      1323  MEOH      H1A            16.7887088620      -32.1134485369       24.2753831293  MEOH      631             0.0000000000
     20708      1323  MEOH      H1B            17.4417236885      -30.4543919871       24.0282657995  MEOH      631             0.0000000000
     20709      1323  MEOH      H1C            15.9643578331      -30.9891167784       23.1267680696  MEOH      631             0.0000000000
     20710      1323  MEOH      LP1A           15.3466759247      -30.6084620357       25.0761545350  MEOH      631             0.0000000000
     20711      1323  MEOH      LP1B           15.8840864249      -30.4764781705       25.4315688192  MEOH      631             0.0000000000
     20712      1324  MEOH      C1            -30.6605100875      -18.8267932343       15.1711863628  MEOH      632             0.0000000000
     20713      1324  MEOH      DC1           -30.6672106006      -18.8190964057       15.1719697940  MEOH      632             0.0000000000
     20714      1324  MEOH      O1            -31.1465138156      -17.8641857809       16.1082507846  MEOH      632             0.0000000000
     20715      1324  MEOH      DO1           -31.1588485160      -17.8549575148       16.1063036380  MEOH      632             0.0000000000
     20716      1324  MEOH      HO1           -30.9651847691      -16.9870061941       15.7359931449  MEOH      632             0.0000000000
     20717      1324  MEOH      HO2           -32.0530775611      -18.1345881055       16.3225514103  MEOH      632             0.0000000000
     20718      1324  MEOH      H1A           -30.7386171801      -19.8460872928       15.6062264810  MEOH      632             0.0000000000
     20719      1324  MEOH      H1B           -29.5956029296      -18.6206380137       14.9307830100  MEOH      632             0.0000000000
     20720      1324  MEOH      H1C           -31.2637416193      -18.7929737062       14.2388296934  MEOH      632             0.0000000000
     20721      1324  MEOH      LP1A          -31.4820054292      -17.7904983143       16.0410530578  MEOH      632             0.0000000000
     20722      1324  MEOH      LP1B          -30.8959163779      -17.7850354196       16.3394133779  MEOH      632             0.0000000000
     20723      1325  MEOH      C1             26.9296526767       16.4260552240       23.3343063508  MEOH      633             0.0000000000
     20724      1325  MEOH      DC1            26.9336842210       16.4393918927       23.3215306606  MEOH      633             0.0000000000
     20725      1325  MEOH      O1             26.5654146158       15.3181880828       24.1515271291  MEOH      633             0.0000000000
     20726      1325  MEOH      DO1            26.5766761172       15.3343743766       24.1473167796  MEOH      633             0.0000000000
     20727      1325  MEOH      HO1            27.1347538052       15.3023453254       24.9367034755  MEOH      633             0.0000000000
     20728      1325  MEOH      HO2            25.6037777213       15.3811308951       24.2619476232  MEOH      633             0.0000000000
     20729      1325  MEOH      H1A            26.3080088742       16.4078145108       22.4136830512  MEOH      633             0.0000000000
     20730      1325  MEOH      H1B            28.0027237162       16.3538924060       23.0556810254  MEOH      633             0.0000000000
     20731      1325  MEOH      H1C            26.7371119874       17.3759311138       23.8774314543  MEOH      633             0.0000000000
     20732      1325  MEOH      LP1A           26.3148438458       15.4128739314       24.3768022482  MEOH      633             0.0000000000
     20733      1325  MEOH      LP1B           26.7466017333       15.0343509770       24.0560927233  MEOH      633             0.0000000000
     20734      1326  MEOH      C1             23.7310466619      -29.5770586134        2.4552297047  MEOH      634             0.0000000000
     20735      1326  MEOH      DC1            23.7097662876      -29.5755470340        2.4405263201  MEOH      634             0.0000000000
     20736      1326  MEOH      O1             22.7905958100      -29.1923361210        3.4611190380  MEOH      634             0.0000000000
     20737      1326  MEOH      DO1            22.7760335220      -29.1956826657        3.4537189506  MEOH      634             0.0000000000
     20738      1326  MEOH      HO1            21.9845510720      -28.8699984673        3.0283485238  MEOH      634             0.0000000000
     20739      1326  MEOH      HO2            22.7636602807      -29.9246650022        4.0966258335  MEOH      634             0.0000000000
     20740      1326  MEOH      H1A            24.7041913353      -29.8212327461        2.9323978499  MEOH      634             0.0000000000
     20741      1326  MEOH      H1B            23.8982756949      -28.7467156644        1.7362818363  MEOH      634             0.0000000000
     20742      1326  MEOH      H1C            23.3705418199      -30.4796769946        1.9170500698  MEOH      634             0.0000000000
     20743      1326  MEOH      LP1A           22.5927035080      -29.4666197348        3.5511586736  MEOH      634             0.0000000000
     20744      1326  MEOH      LP1B           22.8385187298      -28.8566100473        3.5476718957  MEOH      634             0.0000000000
     20745      1327  MEOH      C1            -22.9724746287      -27.6623373169      -26.1494535431  MEOH      635             0.0000000000
     20746      1327  MEOH      DC1           -22.9705867201      -27.6694096404      -26.1400221163  MEOH      635             0.0000000000
     20747      1327  MEOH      O1            -21.6367808640      -28.0116869533      -25.8023316649  MEOH      635             0.0000000000
     20748      1327  MEOH      DO1           -21.6275434027      -28.0130170996      -25.7949484024  MEOH      635             0.0000000000
     20749      1327  MEOH      HO1           -21.3194566573      -28.5628692426      -26.5347273447  MEOH      635             0.0000000000
     20750      1327  MEOH      HO2           -21.2007933279      -27.1668939389      -25.6096152092  MEOH      635             0.0000000000
     20751      1327  MEOH      H1A           -23.4432572688      -27.0691507560      -25.3365486226  MEOH      635             0.0000000000
     20752      1327  MEOH      H1B           -23.5752226886      -28.5774815165      -26.3325569876  MEOH      635             0.0000000000
     20753      1327  MEOH      H1C           -22.9659945186      -27.0414908928      -27.0707725575  MEOH      635             0.0000000000
     20754      1327  MEOH      LP1A          -21.4145907599      -27.7694714299      -25.9225947012  MEOH      635             0.0000000000
     20755      1327  MEOH      LP1B          -21.6353036623      -28.3066604961      -25.6139479425  MEOH      635             0.0000000000
     20756      1328  MEOH      C1             34.5569467685       -7.6598181155       10.1130589982  MEOH      636             0.0000000000
     20757      1328  MEOH      DC1            34.5557731401       -7.6739402760       10.1071638388  MEOH      636             0.0000000000
     20758      1328  MEOH      O1             33.8618948090       -6.4207492147        9.9507548554  MEOH      636             0.0000000000
     20759      1328  MEOH      DO1            33.8653483449       -6.4338337826        9.9419792468  MEOH      636             0.0000000000
     20760      1328  MEOH      HO1            32.9325078881       -6.5990617133        9.7378121272  MEOH      636             0.0000000000
     20761      1328  MEOH      HO2            34.0614695022       -5.9063456753       10.7485386234  MEOH      636             0.0000000000
     20762      1328  MEOH      H1A            35.6188920628       -7.4446268046       10.3585908570  MEOH      636             0.0000000000
     20763      1328  MEOH      H1B            34.5250233073       -8.2593652500        9.1782621603  MEOH      636             0.0000000000
     20764      1328  MEOH      H1C            34.1054793120       -8.2424462827       10.9443486917  MEOH      636             0.0000000000
     20765      1328  MEOH      LP1A           33.7349862427       -6.3134430185       10.2587801727  MEOH      636             0.0000000000
     20766      1328  MEOH      LP1B           33.8821294848       -6.3148688046        9.6177685244  MEOH      636             0.0000000000
     20767      1329  MEOH      C1            -35.8589205292      -22.0045835005       17.6161227888  MEOH      637             0.0000000000
     20768      1329  MEOH      DC1           -35.8482705502      -22.0163651544       17.6124330990  MEOH      637             0.0000000000
     20769      1329  MEOH      O1            -35.7127279770      -22.0462379481       16.2036574682  MEOH      637             0.0000000000
     20770      1329  MEOH      DO1           -35.7030449366      -22.0473544135       16.1977501842  MEOH      637             0.0000000000
     20771      1329  MEOH      HO1           -36.6132220711      -22.1418035556       15.8559829062  MEOH      637             0.0000000000
     20772      1329  MEOH      HO2           -35.1997145582      -21.2429773002       16.0234088494  MEOH      637             0.0000000000
     20773      1329  MEOH      H1A           -36.9158675036      -22.0514418560       17.9552221662  MEOH      637             0.0000000000
     20774      1329  MEOH      H1B           -35.9511788058      -20.9483573015       17.9480800546  MEOH      637             0.0000000000
     20775      1329  MEOH      H1C           -34.9090722070      -22.0743179336       18.1881772233  MEOH      637             0.0000000000
     20776      1329  MEOH      LP1A          -35.7245348455      -21.7219671531       16.0724742019  MEOH      637             0.0000000000
     20777      1329  MEOH      LP1B          -35.6649121558      -22.3764481746       16.0979462883  MEOH      637             0.0000000000
     20778      1330  MEOH      C1            -29.3207353841      -10.3087067459       -9.9388396560  MEOH      638             0.0000000000
     20779      1330  MEOH      DC1           -29.3318257094      -10.3127291766       -9.9427366770  MEOH      638             0.0000000000
     20780      1330  MEOH      O1            -29.2550778394      -10.2893743686      -11.3677961589  MEOH      638             0.0000000000
     20781      1330  MEOH      DO1           -29.2637389863      -10.2848185868      -11.3674577277  MEOH      638             0.0000000000
     20782      1330  MEOH      HO1           -30.1355846174      -10.4874031264      -11.7233132822  MEOH      638             0.0000000000
     20783      1330  MEOH      HO2           -28.8048582132       -9.4633688873      -11.6042644103  MEOH      638             0.0000000000
     20784      1330  MEOH      H1A           -28.2939744227      -10.2185356541       -9.5241685780  MEOH      638             0.0000000000
     20785      1330  MEOH      H1B           -29.7543099360      -11.2674575944       -9.5822854268  MEOH      638             0.0000000000
     20786      1330  MEOH      H1C           -29.9267729102       -9.4553121985       -9.5663382941  MEOH      638             0.0000000000
     20787      1330  MEOH      LP1A          -29.3165331218       -9.9657530114      -11.4860859110  MEOH      638             0.0000000000
     20788      1330  MEOH      LP1B          -29.1714498621      -10.6072324719      -11.4880982272  MEOH      638             0.0000000000
     20789      1331  MEOH      C1            -22.1898054316      -27.8926986185        1.0684710590  MEOH      639             0.0000000000
     20790      1331  MEOH      DC1           -22.1916250817      -27.8859767835        1.0737777639  MEOH      639             0.0000000000
     20791      1331  MEOH      O1            -23.5312631756      -28.3545073973        0.9009916660  MEOH      639             0.0000000000
     20792      1331  MEOH      DO1           -23.5377492959      -28.3497413127        0.9089255793  MEOH      639             0.0000000000
     20793      1331  MEOH      HO1           -23.6723525765      -29.1045283961        1.4997088646  MEOH      639             0.0000000000
     20794      1331  MEOH      HO2           -24.0947751343      -27.5650767686        0.9133833943  MEOH      639             0.0000000000
     20795      1331  MEOH      H1A           -21.9601842856      -27.1285531326        0.2953754593  MEOH      639             0.0000000000
     20796      1331  MEOH      H1B           -21.4806048652      -28.7420301036        0.9685131429  MEOH      639             0.0000000000
     20797      1331  MEOH      H1C           -22.0738247773      -27.4204002952        2.0673723470  MEOH      639             0.0000000000
     20798      1331  MEOH      LP1A          -23.7450871339      -28.1824764002        1.1182119480  MEOH      639             0.0000000000
     20799      1331  MEOH      LP1B          -23.5440619966      -28.5958108880        0.6477944789  MEOH      639             0.0000000000
     20800      1332  MEOH      C1            -25.4468686984       -2.2627961288       31.8022208569  MEOH      640             0.0000000000
     20801      1332  MEOH      DC1           -25.4651540756       -2.2536412404       31.7896857128  MEOH      640             0.0000000000
     20802      1332  MEOH      O1            -24.9269866374       -3.5127707863       32.2585167734  MEOH      640             0.0000000000
     20803      1332  MEOH      DO1           -24.9424472448       -3.4997300252       32.2485259752  MEOH      640             0.0000000000
     20804      1332  MEOH      HO1           -24.0263605427       -3.3735544216       32.5907688510  MEOH      640             0.0000000000
     20805      1332  MEOH      HO2           -25.5979247380       -3.8793876907       32.8554540486  MEOH      640             0.0000000000
     20806      1332  MEOH      H1A           -26.4731027069       -2.4255444163       31.4089299269  MEOH      640             0.0000000000
     20807      1332  MEOH      H1B           -24.7835671556       -1.8369260315       31.0192861702  MEOH      640             0.0000000000
     20808      1332  MEOH      H1C           -25.5200093118       -1.5309963196       32.6349516009  MEOH      640             0.0000000000
     20809      1332  MEOH      LP1A          -25.0083508336       -3.5603818764       32.5955821256  MEOH      640             0.0000000000
     20810      1332  MEOH      LP1B          -24.7683355884       -3.6797904248       31.9950129119  MEOH      640             0.0000000000
     20811      1333  MEOH      C1             21.3667751161      -19.8210040316       -4.5464847718  MEOH      641             0.0000000000
     20812      1333  MEOH      DC1            21.3651816492      -19.8296074929       -4.5605165495  MEOH      641             0.0000000000
     20813      1333  MEOH      O1             20.8838318289      -18.5011965095       -4.8086449623  MEOH      641             0.0000000000
     20814      1333  MEOH      DO1            20.8853864971      -18.5075925461       -4.8262235666  MEOH      641             0.0000000000
     20815      1333  MEOH      HO1            20.3043351696      -18.2683291855       -4.0664479323  MEOH      641             0.0000000000
     20816      1333  MEOH      HO2            21.6761713146      -17.9621909091       -4.9588817851  MEOH      641             0.0000000000
     20817      1333  MEOH      H1A            22.0905466754      -20.1173055649       -5.3355862431  MEOH      641             0.0000000000
     20818      1333  MEOH      H1B            20.5211034894      -20.5414657355       -4.5367157873  MEOH      641             0.0000000000
     20819      1333  MEOH      H1C            21.8757182061      -19.8449705071       -3.5592038893  MEOH      641             0.0000000000
     20820      1333  MEOH      LP1A           21.1036860883      -18.2643717064       -4.6741900731  MEOH      641             0.0000000000
     20821      1333  MEOH      LP1B           20.5891074417      -18.5167442968       -4.9967826828  MEOH      641             0.0000000000
     20822      1334  MEOH      C1              7.8241435274       -9.2277937923      -16.8827184866  MEOH      642             0.0000000000
     20823      1334  MEOH      DC1             7.8330324689       -9.2189101689      -16.8833736897  MEOH      642             0.0000000000
     20824      1334  MEOH      O1              8.5243257980       -8.9378327197      -15.6738642600  MEOH      642             0.0000000000
     20825      1334  MEOH      DO1             8.5296734596       -8.9352743004      -15.6765537396  MEOH      642             0.0000000000
     20826      1334  MEOH      HO1             9.4649892553       -8.8314142264      -15.8853527110  MEOH      642             0.0000000000
     20827      1334  MEOH      HO2             8.0366309572       -8.2092961875      -15.2587880458  MEOH      642             0.0000000000
     20828      1334  MEOH      H1A             6.7589604404       -9.4474519969      -16.6558787538  MEOH      642             0.0000000000
     20829      1334  MEOH      H1B             8.2750389544      -10.1152697929      -17.3760750151  MEOH      642             0.0000000000
     20830      1334  MEOH      H1C             7.8698412475       -8.3534106114      -17.5665947707  MEOH      642             0.0000000000
     20831      1334  MEOH      LP1A            8.5306058834       -8.5921973667      -15.6191215593  MEOH      642             0.0000000000
     20832      1334  MEOH      LP1B            8.6256737847       -9.2353681830      -15.5199122103  MEOH      642             0.0000000000
     20833      1335  MEOH      C1            -26.4040148736      -14.1872283759      -21.0829203677  MEOH      643             0.0000000000
     20834      1335  MEOH      DC1           -26.4099403712      -14.1977635253      -21.0747709769  MEOH      643             0.0000000000
     20835      1335  MEOH      O1            -26.5423212242      -13.0422527499      -20.2391354114  MEOH      643             0.0000000000
     20836      1335  MEOH      DO1           -26.5504513872      -13.0441930425      -20.2375668361  MEOH      643             0.0000000000
     20837      1335  MEOH      HO1           -26.0177262224      -13.2076568905      -19.4401726123  MEOH      643             0.0000000000
     20838      1335  MEOH      HO2           -26.3465966215      -12.2756292788      -20.8002774025  MEOH      643             0.0000000000
     20839      1335  MEOH      H1A           -27.0827556369      -14.0853887519      -21.9565682762  MEOH      643             0.0000000000
     20840      1335  MEOH      H1B           -26.6670150033      -15.1116744880      -20.5256490536  MEOH      643             0.0000000000
     20841      1335  MEOH      H1C           -25.3610647302      -14.2566599422      -21.4594243621  MEOH      643             0.0000000000
     20842      1335  MEOH      LP1A          -26.2953470735      -12.8064368196      -20.3159118130  MEOH      643             0.0000000000
     20843      1335  MEOH      LP1B          -26.8193158369      -13.0813260165      -20.0287850741  MEOH      643             0.0000000000
     20844      1336  MEOH      C1            -11.2422925203       -8.5474019011       34.8500950612  MEOH      644             0.0000000000
     20845      1336  MEOH      DC1           -11.2325198872       -8.5763209521       34.8571190859  MEOH      644             0.0000000000
     20846      1336  MEOH      O1            -10.5460025425       -9.7826215762       35.0380921889  MEOH      644             0.0000000000
     20847      1336  MEOH      DO1           -10.5419030202       -9.8155111874       35.0391741050  MEOH      644             0.0000000000
     20848      1336  MEOH      HO1            -9.6811356602       -9.5188119762       35.3892471001  MEOH      644             0.0000000000
     20849      1336  MEOH      HO2           -11.1462870602      -10.3415589365       35.5559218182  MEOH      644             0.0000000000
     20850      1336  MEOH      H1A           -12.2126091824       -8.7161046294       34.3359491997  MEOH      644             0.0000000000
     20851      1336  MEOH      H1B           -10.6318724035       -7.8484783716       34.2391824804  MEOH      644             0.0000000000
     20852      1336  MEOH      H1C           -11.4398955751       -8.0673684394       35.8323587266  MEOH      644             0.0000000000
     20853      1336  MEOH      LP1A          -10.6105144242       -9.9089041852       35.3580780007  MEOH      644             0.0000000000
     20854      1336  MEOH      LP1B          -10.3740847989       -9.8688364482       34.7456690618  MEOH      644             0.0000000000
     20855      1337  MEOH      C1             14.4967756683       -7.2559857413       12.7659021519  MEOH      645             0.0000000000
     20856      1337  MEOH      DC1            14.5020240378       -7.2663364046       12.7558370916  MEOH      645             0.0000000000
     20857      1337  MEOH      O1             14.6409050291       -7.5748173993       11.3791669209  MEOH      645             0.0000000000
     20858      1337  MEOH      DO1            14.6491960022       -7.5851410977       11.3694485537  MEOH      645             0.0000000000
     20859      1337  MEOH      HO1            13.8438296860       -8.0703280545       11.1341361283  MEOH      645             0.0000000000
     20860      1337  MEOH      HO2            14.8272293926       -6.7289418968       10.9425001536  MEOH      645             0.0000000000
     20861      1337  MEOH      H1A            15.3644582809       -6.6555243631       13.1136003241  MEOH      645             0.0000000000
     20862      1337  MEOH      H1B            14.4691393739       -8.1937566496       13.3610012691  MEOH      645             0.0000000000
     20863      1337  MEOH      H1C            13.5622567535       -6.6811585256       12.9407422786  MEOH      645             0.0000000000
     20864      1337  MEOH      LP1A           14.5078466709       -7.3175150234       11.1827210997  MEOH      645             0.0000000000
     20865      1337  MEOH      LP1B           14.8082373741       -7.8801255640       11.3432947741  MEOH      645             0.0000000000
     20866      1338  MEOH      C1            -18.0847674212      -18.7974075927       26.6665065541  MEOH      646             0.0000000000
     20867      1338  MEOH      DC1           -18.0867509327      -18.7978550902       26.6715583740  MEOH      646             0.0000000000
     20868      1338  MEOH      O1            -16.9680422951      -17.9802924306       27.0225745440  MEOH      646             0.0000000000
     20869      1338  MEOH      DO1           -16.9672701807      -17.9732697492       27.0296589257  MEOH      646             0.0000000000
     20870      1338  MEOH      HO1           -16.3898732713      -17.9976033780       26.2439084334  MEOH      646             0.0000000000
     20871      1338  MEOH      HO2           -17.3447674182      -17.1400101569       27.3273759255  MEOH      646             0.0000000000
     20872      1338  MEOH      H1A           -18.8109232958      -18.8531250542       27.5055025078  MEOH      646             0.0000000000
     20873      1338  MEOH      H1B           -17.7362452044      -19.8183286028       26.4008497137  MEOH      646             0.0000000000
     20874      1338  MEOH      H1C           -18.5906401358      -18.3589435248       25.7798481879  MEOH      646             0.0000000000
     20875      1338  MEOH      LP1A          -17.0314734010      -17.6469309120       26.9368622771  MEOH      646             0.0000000000
     20876      1338  MEOH      LP1B          -16.7221979669      -18.1747902569       27.1782381616  MEOH      646             0.0000000000
     20877      1339  MEOH      C1             10.0668269511       29.3475384075       32.0763206656  MEOH      647             0.0000000000
     20878      1339  MEOH      DC1            10.0583440336       29.3359043602       32.0717051436  MEOH      647             0.0000000000
     20879      1339  MEOH      O1             11.2853563990       29.4054150347       32.8062713511  MEOH      647             0.0000000000
     20880      1339  MEOH      DO1            11.2755038882       29.3983983371       32.8024975851  MEOH      647             0.0000000000
     20881      1339  MEOH      HO1            12.0187665445       29.3385805263       32.1749689610  MEOH      647             0.0000000000
     20882      1339  MEOH      HO2            11.2098751514       30.1835600114       33.3804603239  MEOH      647             0.0000000000
     20883      1339  MEOH      H1A             9.2130047645       29.4121267222       32.7842309883  MEOH      647             0.0000000000
     20884      1339  MEOH      H1B            10.0115444961       28.3877355125       31.5195053875  MEOH      647             0.0000000000
     20885      1339  MEOH      H1C            10.0062720383       30.1985781149       31.3647129653  MEOH      647             0.0000000000
     20886      1339  MEOH      LP1A           11.3880798799       29.7381364734       32.8415464230  MEOH      647             0.0000000000
     20887      1339  MEOH      LP1B           11.3819331918       29.0834258634       32.9037182426  MEOH      647             0.0000000000
     20888      1340  MEOH      C1            -20.4499096989       22.1427506765       29.3848581362  MEOH      648             0.0000000000
     20889      1340  MEOH      DC1           -20.4433963038       22.1466487901       29.4095659088  MEOH      648             0.0000000000
     20890      1340  MEOH      O1            -20.4905811414       21.7722157246       30.7646459740  MEOH      648             0.0000000000
     20891      1340  MEOH      DO1           -20.4700263359       21.7918450678       30.7772193522  MEOH      648             0.0000000000
     20892      1340  MEOH      HO1           -19.9468231131       20.9820358617       30.9090169925  MEOH      648             0.0000000000
     20893      1340  MEOH      HO2           -20.4743591806       22.5778136108       31.3046912449  MEOH      648             0.0000000000
     20894      1340  MEOH      H1A           -21.3708494781       22.7065428805       29.1234594477  MEOH      648             0.0000000000
     20895      1340  MEOH      H1B           -20.3904799360       21.2454062256       28.7325069733  MEOH      648             0.0000000000
     20896      1340  MEOH      H1C           -19.5727763334       22.7965911294       29.1913362450  MEOH      648             0.0000000000
     20897      1340  MEOH      LP1A          -20.2360745834       21.9362523216       30.9401976950  MEOH      648             0.0000000000
     20898      1340  MEOH      LP1B          -20.7588584628       21.5549787668       30.8223987491  MEOH      648             0.0000000000
     20899      1341  MEOH      C1             -1.1743243495       -5.1830182562       16.8625790086  MEOH      649             0.0000000000
     20900      1341  MEOH      DC1            -1.1853556712       -5.1875611082       16.8505884432  MEOH      649             0.0000000000
     20901      1341  MEOH      O1             -1.3026591108       -3.9739249616       17.5934656299  MEOH      649             0.0000000000
     20902      1341  MEOH      DO1            -1.3111362999       -3.9811551161       17.5762078688  MEOH      649             0.0000000000
     20903      1341  MEOH      HO1            -0.6295346505       -3.3488395419       17.2819023475  MEOH      649             0.0000000000
     20904      1341  MEOH      HO2            -2.2482395330       -3.7577148128       17.5990188782  MEOH      649             0.0000000000
     20905      1341  MEOH      H1A            -1.7478207169       -5.9930814058       17.3617990106  MEOH      649             0.0000000000
     20906      1341  MEOH      H1B            -0.1011441226       -5.4691779404       16.8357865295  MEOH      649             0.0000000000
     20907      1341  MEOH      H1C            -1.5566069997       -5.0495463605       15.8279939571  MEOH      649             0.0000000000
     20908      1341  MEOH      LP1A           -1.5281964802       -3.7601019382       17.4324916890  MEOH      649             0.0000000000
     20909      1341  MEOH      LP1B           -1.1075431602       -3.9881945745       17.8836830380  MEOH      649             0.0000000000
     20910      1342  MEOH      C1              8.8292268876       -9.3565993954       -3.1120107727  MEOH      650             0.0000000000
     20911      1342  MEOH      DC1             8.8297605766       -9.3381120467       -3.1155120844  MEOH      650             0.0000000000
     20912      1342  MEOH      O1              7.8022266226       -8.3781967947       -3.2297134251  MEOH      650             0.0000000000
     20913      1342  MEOH      DO1             7.8063842643       -8.3755316770       -3.2332339286  MEOH      650             0.0000000000
     20914      1342  MEOH      HO1             7.4674963615       -8.1797772896       -2.3411835425  MEOH      650             0.0000000000
     20915      1342  MEOH      HO2             8.1497764437       -7.6851412867       -3.8126226680  MEOH      650             0.0000000000
     20916      1342  MEOH      H1A             9.0995461735       -9.7255674431       -4.1244884590  MEOH      650             0.0000000000
     20917      1342  MEOH      H1B             8.4791373141      -10.2216204601       -2.5091037744  MEOH      650             0.0000000000
     20918      1342  MEOH      H1C             9.7339717805       -8.9137874097       -2.6433155367  MEOH      650             0.0000000000
     20919      1342  MEOH      LP1A            7.9405099808       -8.0570438556       -3.2142698986  MEOH      650             0.0000000000
     20920      1342  MEOH      LP1B            7.4926282521       -8.5346396961       -3.2763446119  MEOH      650             0.0000000000
     20921      1343  MEOH      C1             -3.4831115103       34.8777730643       11.7911722592  MEOH      651             0.0000000000
     20922      1343  MEOH      DC1            -3.5026944951       34.8837673467       11.7889815094  MEOH      651             0.0000000000
     20923      1343  MEOH      O1             -3.5651409803       36.0217584490       12.6179174235  MEOH      651             0.0000000000
     20924      1343  MEOH      DO1            -3.5705596017       36.0402160795       12.6151346931  MEOH      651             0.0000000000
     20925      1343  MEOH      HO1            -3.1523948390       36.7502014151       12.1281098401  MEOH      651             0.0000000000
     20926      1343  MEOH      HO2            -4.4863578206       36.0812943706       12.9157680694  MEOH      651             0.0000000000
     20927      1343  MEOH      H1A            -3.9239320324       34.0078597078       12.3233837021  MEOH      651             0.0000000000
     20928      1343  MEOH      H1B            -2.4122664133       34.6701588217       11.5802028191  MEOH      651             0.0000000000
     20929      1343  MEOH      H1C            -4.0259215957       35.0757367650       10.8422314886  MEOH      651             0.0000000000
     20930      1343  MEOH      LP1A           -3.8658034921       36.1908860555       12.5587743200  MEOH      651             0.0000000000
     20931      1343  MEOH      LP1B           -3.2836695440       36.0401375277       12.8251275584  MEOH      651             0.0000000000
     20932      1344  MEOH      C1             18.2515917386      -29.0480892693       -2.9480866849  MEOH      652             0.0000000000
     20933      1344  MEOH      DC1            18.2446752471      -29.0437437458       -2.9669977953  MEOH      652             0.0000000000
     20934      1344  MEOH      O1             19.4384933768      -29.2463273340       -3.7222548236  MEOH      652             0.0000000000
     20935      1344  MEOH      DO1            19.4361264334      -29.2361446187       -3.7318821079  MEOH      652             0.0000000000
     20936      1344  MEOH      HO1            19.2569137752      -29.0643110008       -4.6575616737  MEOH      652             0.0000000000
     20937      1344  MEOH      HO2            20.1506757535      -28.7876629736       -3.2496839118  MEOH      652             0.0000000000
     20938      1344  MEOH      H1A            18.4301434729      -29.4181183967       -1.9158470209  MEOH      652             0.0000000000
     20939      1344  MEOH      H1B            17.4012110471      -29.6197886316       -3.3774274803  MEOH      652             0.0000000000
     20940      1344  MEOH      H1C            18.0044782235      -27.9666936771       -2.8861231023  MEOH      652             0.0000000000
     20941      1344  MEOH      LP1A           19.6228838717      -28.9491980158       -3.7368942793  MEOH      652             0.0000000000
     20942      1344  MEOH      LP1B           19.4584300729      -29.5794929487       -3.8276265531  MEOH      652             0.0000000000
     20943      1345  MEOH      C1            -13.0655492247       36.5539762611      -19.9839592884  MEOH      653             0.0000000000
     20944      1345  MEOH      DC1           -13.0638008897       36.5663132340      -19.9976761246  MEOH      653             0.0000000000
     20945      1345  MEOH      O1            -11.7262401729       36.8142193445      -20.4142756901  MEOH      653             0.0000000000
     20946      1345  MEOH      DO1           -11.7312224179       36.8254841844      -20.4224244115  MEOH      653             0.0000000000
     20947      1345  MEOH      HO1           -11.2993556705       35.9593561751      -20.5812445038  MEOH      653             0.0000000000
     20948      1345  MEOH      HO2           -11.7847725738       37.4839334034      -21.1135303200  MEOH      653             0.0000000000
     20949      1345  MEOH      H1A           -13.5620443102       37.5062640798      -19.6994218738  MEOH      653             0.0000000000
     20950      1345  MEOH      H1B           -13.0673293981       35.8812085342      -19.0998204876  MEOH      653             0.0000000000
     20951      1345  MEOH      H1C           -13.6414106978       36.0598583206      -20.7954714729  MEOH      653             0.0000000000
     20952      1345  MEOH      LP1A          -11.7174055882       36.8515667179      -20.7621652183  MEOH      653             0.0000000000
     20953      1345  MEOH      LP1B          -11.5128195395       36.8317069640      -20.1374258817  MEOH      653             0.0000000000
     20954      1346  MEOH      C1             31.3876008647      -31.1685767712       30.5645178288  MEOH      654             0.0000000000
     20955      1346  MEOH      DC1            31.3799727903      -31.1614489331       30.5684127803  MEOH      654             0.0000000000
     20956      1346  MEOH      O1             30.7528998715      -30.0106154616       30.0174500975  MEOH      654             0.0000000000
     20957      1346  MEOH      DO1            30.7387187479      -30.0034792511       30.0256749132  MEOH      654             0.0000000000
     20958      1346  MEOH      HO1            30.7789240843      -30.1132326727       29.0532444922  MEOH      654             0.0000000000
     20959      1346  MEOH      HO2            29.9107434428      -29.9147687133       30.4891342615  MEOH      654             0.0000000000
     20960      1346  MEOH      H1A            31.5223144678      -31.0413219245       31.6599535644  MEOH      654             0.0000000000
     20961      1346  MEOH      H1B            32.3834067076      -31.3112089734       30.0929801538  MEOH      654             0.0000000000
     20962      1346  MEOH      H1C            30.7643405652      -32.0693957294       30.3790648599  MEOH      654             0.0000000000
     20963      1346  MEOH      LP1A           30.4088596718      -30.0664825201       29.9855876942  MEOH      654             0.0000000000
     20964      1346  MEOH      LP1B           30.9888032464      -29.7567810582       29.9682800523  MEOH      654             0.0000000000
     20965      1347  MEOH      C1             18.7999820877        7.1630855842       -8.2088925833  MEOH      655             0.0000000000
     20966      1347  MEOH      DC1            18.7920954893        7.1718793366       -8.2105335429  MEOH      655             0.0000000000
     20967      1347  MEOH      O1             18.6539256406        7.5688546939       -6.8446849994  MEOH      655             0.0000000000
     20968      1347  MEOH      DO1            18.6468643808        7.5644527973       -6.8494178207  MEOH      655             0.0000000000
     20969      1347  MEOH      HO1            17.9833795508        8.2670292807       -6.7828773321  MEOH      655             0.0000000000
     20970      1347  MEOH      HO2            18.5625891264        6.7522802553       -6.3291621297  MEOH      655             0.0000000000
     20971      1347  MEOH      H1A            19.6797336549        6.4905811148       -8.2988699101  MEOH      655             0.0000000000
     20972      1347  MEOH      H1B            18.9661783351        8.0473442319       -8.8606490189  MEOH      655             0.0000000000
     20973      1347  MEOH      H1C            17.8980608571        6.6103596338       -8.5485293296  MEOH      655             0.0000000000
     20974      1347  MEOH      LP1A           18.4124536827        7.3711859210       -6.6861973034  MEOH      655             0.0000000000
     20975      1347  MEOH      LP1B           18.8789639884        7.8268109806       -6.7717720638  MEOH      655             0.0000000000
     20976      1348  MEOH      C1             -1.6542844334       12.3060922036      -27.9119273886  MEOH      656             0.0000000000
     20977      1348  MEOH      DC1            -1.6505975218       12.3104709792      -27.8953049790  MEOH      656             0.0000000000
     20978      1348  MEOH      O1             -1.7433152077       11.7403800188      -26.6040378221  MEOH      656             0.0000000000
     20979      1348  MEOH      DO1            -1.7242283540       11.7336571404      -26.5857344917  MEOH      656             0.0000000000
     20980      1348  MEOH      HO1            -2.6510824998       11.9262766158      -26.3171563158  MEOH      656             0.0000000000
     20981      1348  MEOH      HO2            -1.4861478946       10.8118661093      -26.7164072772  MEOH      656             0.0000000000
     20982      1348  MEOH      H1A            -0.6975776247       12.0272041799      -28.4031040908  MEOH      656             0.0000000000
     20983      1348  MEOH      H1B            -1.7111706108       13.4139272996      -27.8503939596  MEOH      656             0.0000000000
     20984      1348  MEOH      H1C            -2.4892293469       11.9325651594      -28.5425346671  MEOH      656             0.0000000000
     20985      1348  MEOH      LP1A           -1.8448317498       11.4060740822      -26.6248688669  MEOH      656             0.0000000000
     20986      1348  MEOH      LP1B           -1.6458094378       11.9763597261      -26.3646506826  MEOH      656             0.0000000000
     20987      1349  MEOH      C1             10.9987644838        8.3676839821        5.1541807816  MEOH      657             0.0000000000
     20988      1349  MEOH      DC1            10.9977470648        8.3538567988        5.1523812278  MEOH      657             0.0000000000
     20989      1349  MEOH      O1              9.7674233675        8.3905275152        4.4274491394  MEOH      657             0.0000000000
     20990      1349  MEOH      DO1             9.7665225242        8.3746407761        4.4314661714  MEOH      657             0.0000000000
     20991      1349  MEOH      HO1             9.9612569924        8.4255666281        3.4776592751  MEOH      657             0.0000000000
     20992      1349  MEOH      HO2             9.1894589957        7.7197778570        4.8236209229  MEOH      657             0.0000000000
     20993      1349  MEOH      H1A            10.7960339541        8.5828404081        6.2251285139  MEOH      657             0.0000000000
     20994      1349  MEOH      H1B            11.6890255161        9.1472010436        4.7666064558  MEOH      657             0.0000000000
     20995      1349  MEOH      H1C            11.4766168044        7.3680448053        5.0723292202  MEOH      657             0.0000000000
     20996      1349  MEOH      LP1A            9.6623716637        8.0636276203        4.3596214296  MEOH      657             0.0000000000
     20997      1349  MEOH      LP1B            9.6604820067        8.7208765620        4.3834826452  MEOH      657             0.0000000000
     20998      1350  MEOH      C1            -22.1078538428      -31.2004719729      -30.1158120151  MEOH      658             0.0000000000
     20999      1350  MEOH      DC1           -22.0945634660      -31.2141048482      -30.1164627326  MEOH      658             0.0000000000
     21000      1350  MEOH      O1            -21.6266802329      -32.3385016436      -30.8378068636  MEOH      658             0.0000000000
     21001      1350  MEOH      DO1           -21.6049426643      -32.3383637702      -30.8471996041  MEOH      658             0.0000000000
     21002      1350  MEOH      HO1           -21.0998784333      -32.8629955848      -30.2146808975  MEOH      658             0.0000000000
     21003      1350  MEOH      HO2           -22.4192709345      -32.7406964446      -31.2263159663  MEOH      658             0.0000000000
     21004      1350  MEOH      H1A           -22.7898736330      -30.6039385054      -30.7587100081  MEOH      658             0.0000000000
     21005      1350  MEOH      H1B           -21.2658989519      -30.5452374627      -29.8058108879  MEOH      658             0.0000000000
     21006      1350  MEOH      H1C           -22.6662974001      -31.5294554091      -29.2134641376  MEOH      658             0.0000000000
     21007      1350  MEOH      LP1A          -21.8582499033      -32.6001197717      -30.8170356621  MEOH      658             0.0000000000
     21008      1350  MEOH      LP1B          -21.3199591369      -32.2635426328      -30.9888145322  MEOH      658             0.0000000000
     21009      1351  MEOH      C1            -29.2286402031       -7.1453561353      -15.0691374743  MEOH      659             0.0000000000
     21010      1351  MEOH      DC1           -29.2348715355       -7.1463918963      -15.0607293763  MEOH      659             0.0000000000
     21011      1351  MEOH      O1            -30.3624236357       -6.9686688873      -14.2188341368  MEOH      659             0.0000000000
     21012      1351  MEOH      DO1           -30.3690272345       -6.9710766151      -14.2080946852  MEOH      659             0.0000000000
     21013      1351  MEOH      HO1           -30.1277775231       -7.3718354913      -13.3683649185  MEOH      659             0.0000000000
     21014      1351  MEOH      HO2           -30.5801369368       -6.0244803435      -14.2636550441  MEOH      659             0.0000000000
     21015      1351  MEOH      H1A           -29.4556283736       -6.7568404477      -16.0849390945  MEOH      659             0.0000000000
     21016      1351  MEOH      H1B           -28.9751827063       -8.2246539793      -15.1412239581  MEOH      659             0.0000000000
     21017      1351  MEOH      H1C           -28.3568708005       -6.5923816081      -14.6585789734  MEOH      659             0.0000000000
     21018      1351  MEOH      LP1A          -30.3383544365       -6.6635371852      -14.0490833840  MEOH      659             0.0000000000
     21019      1351  MEOH      LP1B          -30.5820901392       -7.2388014819      -14.2545413994  MEOH      659             0.0000000000
     21020      1352  MEOH      C1             17.1606327245       22.0961382315       -0.1091175000  MEOH      660             0.0000000000
     21021      1352  MEOH      DC1            17.1621762914       22.0999174040       -0.1136448031  MEOH      660             0.0000000000
     21022      1352  MEOH      O1             17.2641829396       23.4427288149       -0.5810466489  MEOH      660             0.0000000000
     21023      1352  MEOH      DO1            17.2703878736       23.4439341593       -0.5894452696  MEOH      660             0.0000000000
     21024      1352  MEOH      HO1            17.2131221207       24.0186256824        0.1978214983  MEOH      660             0.0000000000
     21025      1352  MEOH      HO2            18.0384304130       23.4656545837       -1.1649261404  MEOH      660             0.0000000000
     21026      1352  MEOH      H1A            17.0880560256       21.3988605023       -0.9710092515  MEOH      660             0.0000000000
     21027      1352  MEOH      H1B            16.2518988697       21.9816727326        0.5197079385  MEOH      660             0.0000000000
     21028      1352  MEOH      H1C            18.0589968629       21.8315337660        0.4885842250  MEOH      660             0.0000000000
     21029      1352  MEOH      LP1A           17.6002912273       23.5394757708       -0.5941327300  MEOH      660             0.0000000000
     21030      1352  MEOH      LP1B           16.9462868523       23.5674836180       -0.6577168305  MEOH      660             0.0000000000
     21031      1353  MEOH      C1             26.1767542221       30.2604104197       -5.0993988731  MEOH      661             0.0000000000
     21032      1353  MEOH      DC1            26.1710540983       30.2604370587       -5.1084333918  MEOH      661             0.0000000000
     21033      1353  MEOH      O1             26.7350946817       29.4141003339       -6.1052861297  MEOH      661             0.0000000000
     21034      1353  MEOH      DO1            26.7193812797       29.4101268517       -6.1183656647  MEOH      661             0.0000000000
     21035      1353  MEOH      HO1            26.7285310926       28.5052384921       -5.7664246953  MEOH      661             0.0000000000
     21036      1353  MEOH      HO2            26.3384534059       29.6721301653       -6.9520424735  MEOH      661             0.0000000000
     21037      1353  MEOH      H1A            26.3970229584       31.3213561758       -5.3447492079  MEOH      661             0.0000000000
     21038      1353  MEOH      H1B            26.6368392479       30.0328734953       -4.1140716599  MEOH      661             0.0000000000
     21039      1353  MEOH      H1C            25.0773711121       30.1162570937       -5.0294160341  MEOH      661             0.0000000000
     21040      1353  MEOH      LP1A           26.4831603736       29.3021859431       -6.3209346249  MEOH      661             0.0000000000
     21041      1353  MEOH      LP1B           27.0821515093       29.3932558724       -6.0650733595  MEOH      661             0.0000000000
     21042      1354  MEOH      C1            -36.5825580343       32.6531130355      -16.3280477733  MEOH      662             0.0000000000
     21043      1354  MEOH      DC1           -36.5807198708       32.6670108165      -16.3349823068  MEOH      662             0.0000000000
     21044      1354  MEOH      O1            -37.0037772656       31.6705231659      -15.3918860017  MEOH      662             0.0000000000
     21045      1354  MEOH      DO1           -37.0006284273       31.6773797167      -15.4044456748  MEOH      662             0.0000000000
     21046      1354  MEOH      HO1           -37.4173186967       32.1023952641      -14.6280993983  MEOH      662             0.0000000000
     21047      1354  MEOH      HO2           -37.4613271809       30.9873814379      -15.9065368105  MEOH      662             0.0000000000
     21048      1354  MEOH      H1A           -35.7710232617       32.2709832277      -16.9835697968  MEOH      662             0.0000000000
     21049      1354  MEOH      H1B           -36.2212378657       33.5466202867      -15.7754054588  MEOH      662             0.0000000000
     21050      1354  MEOH      H1C           -37.4355808700       32.8837918343      -17.0014424087  MEOH      662             0.0000000000
     21051      1354  MEOH      LP1A          -37.3299134172       31.5670347837      -15.4655430811  MEOH      662             0.0000000000
     21052      1354  MEOH      LP1B          -36.7446283718       31.6001917671      -15.1673969258  MEOH      662             0.0000000000
     21053      1355  MEOH      C1            -20.5493562142        9.3614629735       17.1907922793  MEOH      663             0.0000000000
     21054      1355  MEOH      DC1           -20.5595150566        9.3631790900       17.2061632872  MEOH      663             0.0000000000
     21055      1355  MEOH      O1            -19.7654431473        9.7616105670       18.3151481146  MEOH      663             0.0000000000
     21056      1355  MEOH      DO1           -19.7750659816        9.7613170600       18.3250420711  MEOH      663             0.0000000000
     21057      1355  MEOH      HO1           -19.2255873459       10.5165636422       18.0331878878  MEOH      663             0.0000000000
     21058      1355  MEOH      HO2           -20.3745331137        9.8277207966       19.0671712860  MEOH      663             0.0000000000
     21059      1355  MEOH      H1A           -21.0475429643        8.3918935419       17.4054223783  MEOH      663             0.0000000000
     21060      1355  MEOH      H1B           -19.8940215147        9.2330301611       16.3028945112  MEOH      663             0.0000000000
     21061      1355  MEOH      H1C           -21.3204057114       10.1296407376       16.9678425173  MEOH      663             0.0000000000
     21062      1355  MEOH      LP1A          -19.9410335166        9.9967132392       18.5059222107  MEOH      663             0.0000000000
     21063      1355  MEOH      LP1B          -19.4631544467        9.5852436133       18.3191778900  MEOH      663             0.0000000000
     21064      1356  MEOH      C1             16.6096043188       18.9236443729       33.1529695215  MEOH      664             0.0000000000
     21065      1356  MEOH      DC1            16.6000421588       18.9208624713       33.1520958406  MEOH      664             0.0000000000
     21066      1356  MEOH      O1             16.2094247105       20.2834548702       32.9599519326  MEOH      664             0.0000000000
     21067      1356  MEOH      DO1            16.2046088618       20.2829262031       32.9610105970  MEOH      664             0.0000000000
     21068      1356  MEOH      HO1            15.7070612319       20.5536413655       33.7445092563  MEOH      664             0.0000000000
     21069      1356  MEOH      HO2            17.0177500449       20.7639384063       32.7219483077  MEOH      664             0.0000000000
     21070      1356  MEOH      H1A            17.1682915806       18.5714560913       32.2595754551  MEOH      664             0.0000000000
     21071      1356  MEOH      H1B            15.7196028324       18.2746956628       33.2981725783  MEOH      664             0.0000000000
     21072      1356  MEOH      H1C            17.2701979249       18.8462617158       34.0428846929  MEOH      664             0.0000000000
     21073      1356  MEOH      LP1A           16.4565811022       20.4993863292       33.0815550702  MEOH      664             0.0000000000
     21074      1356  MEOH      LP1B           15.9005169678       20.2951836680       32.7958225880  MEOH      664             0.0000000000
     21075      1357  MEOH      C1             22.8753476093       10.9555459837      -32.1163935037  MEOH      665             0.0000000000
     21076      1357  MEOH      DC1            22.9067682623       10.9669866310      -32.1034899815  MEOH      665             0.0000000000
     21077      1357  MEOH      O1             21.5771780660       11.1220037803      -32.6647531338  MEOH      665             0.0000000000
     21078      1357  MEOH      DO1            21.6080896034       11.1200414896      -32.6557577237  MEOH      665             0.0000000000
     21079      1357  MEOH      HO1            21.5922116830       11.0239186617      -33.6296641659  MEOH      665             0.0000000000
     21080      1357  MEOH      HO2            20.9858950863       10.5744747381      -32.1248490797  MEOH      665             0.0000000000
     21081      1357  MEOH      H1A            22.8259860267       11.1507644685      -31.0237937699  MEOH      665             0.0000000000
     21082      1357  MEOH      H1B            23.5722517953       11.6776700260      -32.5930300772  MEOH      665             0.0000000000
     21083      1357  MEOH      H1C            23.2270210645        9.9110040189      -32.2563180064  MEOH      665             0.0000000000
     21084      1357  MEOH      LP1A           21.4106898929       10.8142704861      -32.6738034278  MEOH      665             0.0000000000
     21085      1357  MEOH      LP1B           21.5204216242       11.4595816005      -32.7376909266  MEOH      665             0.0000000000
     21086      1358  MEOH      C1             -2.5246902988      -27.2761673285      -13.8135155221  MEOH      666             0.0000000000
     21087      1358  MEOH      DC1            -2.5141445393      -27.2714656147      -13.8073613669  MEOH      666             0.0000000000
     21088      1358  MEOH      O1             -2.2718437925      -28.4225313988      -14.6239225885  MEOH      666             0.0000000000
     21089      1358  MEOH      DO1            -2.2771517121      -28.4179812387      -14.6176338580  MEOH      666             0.0000000000
     21090      1358  MEOH      HO1            -1.6191920300      -28.9917982370      -14.1870233494  MEOH      666             0.0000000000
     21091      1358  MEOH      HO2            -3.1424877935      -28.7628150980      -14.8829322942  MEOH      666             0.0000000000
     21092      1358  MEOH      H1A            -3.1307628313      -26.5666480262      -14.4164910162  MEOH      666             0.0000000000
     21093      1358  MEOH      H1B            -1.5780889761      -26.7854977091      -13.5012491919  MEOH      666             0.0000000000
     21094      1358  MEOH      H1C            -3.1077495993      -27.5540817475      -12.9095650656  MEOH      666             0.0000000000
     21095      1358  MEOH      LP1A           -2.4970560210      -28.6780692698      -14.5434250814  MEOH      666             0.0000000000
     21096      1358  MEOH      LP1B           -2.0116692165      -28.3555241193      -14.8482420358  MEOH      666             0.0000000000
     21097      1359  MEOH      C1             14.4324679020       24.4955749182      -23.7432638946  MEOH      667             0.0000000000
     21098      1359  MEOH      DC1            14.4281368289       24.4865818466      -23.7498791390  MEOH      667             0.0000000000
     21099      1359  MEOH      O1             14.7135545114       25.6168853401      -24.5754347120  MEOH      667             0.0000000000
     21100      1359  MEOH      DO1            14.7116078738       25.6132331553      -24.5839492083  MEOH      667             0.0000000000
     21101      1359  MEOH      HO1            15.2526867523       26.2293910337      -24.0509604971  MEOH      667             0.0000000000
     21102      1359  MEOH      HO2            15.0383556298       25.2534251682      -25.4140651065  MEOH      667             0.0000000000
     21103      1359  MEOH      H1A            13.7576379362       23.8084743555      -24.2971757432  MEOH      667             0.0000000000
     21104      1359  MEOH      H1B            13.9255837730       24.8223862199      -22.8102130635  MEOH      667             0.0000000000
     21105      1359  MEOH      H1C            15.3683732145       23.9507110407      -23.4952203483  MEOH      667             0.0000000000
     21106      1359  MEOH      LP1A           15.0072828806       25.5604258392      -24.7571927101  MEOH      667             0.0000000000
     21107      1359  MEOH      LP1B           14.4610918384       25.8569892556      -24.5420774265  MEOH      667             0.0000000000
     21108      1360  MEOH      C1            -31.1481719853      -31.2504809590      -12.7961245001  MEOH      668             0.0000000000
     21109      1360  MEOH      DC1           -31.1364969369      -31.2546018732      -12.7820110381  MEOH      668             0.0000000000
     21110      1360  MEOH      O1            -29.7971373942      -31.5479516206      -12.4380051421  MEOH      668             0.0000000000
     21111      1360  MEOH      DO1           -29.7914930060      -31.5493175387      -12.4239201429  MEOH      668             0.0000000000
     21112      1360  MEOH      HO1           -29.7307280613      -31.5189737447      -11.4707150695  MEOH      668             0.0000000000
     21113      1360  MEOH      HO2           -29.5584612183      -32.3517641717      -12.9256721041  MEOH      668             0.0000000000
     21114      1360  MEOH      H1A           -31.2300273915      -31.1661934835      -13.9008943018  MEOH      668             0.0000000000
     21115      1360  MEOH      H1B           -31.4659094392      -30.2868535488      -12.3435914907  MEOH      668             0.0000000000
     21116      1360  MEOH      H1C           -31.8261619696      -32.0617735208      -12.4548695197  MEOH      668             0.0000000000
     21117      1360  MEOH      LP1A          -29.7569643122      -31.8934284334      -12.3988657079  MEOH      668             0.0000000000
     21118      1360  MEOH      LP1B          -29.6082654460      -31.2534483671      -12.4282470240  MEOH      668             0.0000000000
     21119      1361  MEOH      C1             28.2200039144       18.7136822256        4.8700846045  MEOH      669             0.0000000000
     21120      1361  MEOH      DC1            28.2140099443       18.7252161118        4.8851253062  MEOH      669             0.0000000000
     21121      1361  MEOH      O1             28.9465342256       18.5469052182        3.6526554603  MEOH      669             0.0000000000
     21122      1361  MEOH      DO1            28.9374795139       18.5510363588        3.6677064933  MEOH      669             0.0000000000
     21123      1361  MEOH      HO1            29.8075881628       18.1418477360        3.8408430088  MEOH      669             0.0000000000
     21124      1361  MEOH      HO2            28.3350980354       18.1075589398        3.0410831958  MEOH      669             0.0000000000
     21125      1361  MEOH      H1A            27.2796479416       19.2661429048        4.6583327631  MEOH      669             0.0000000000
     21126      1361  MEOH      H1B            28.8309212207       19.2835879271        5.6024154989  MEOH      669             0.0000000000
     21127      1361  MEOH      H1C            27.9583030569       17.7199004180        5.2922591900  MEOH      669             0.0000000000
     21128      1361  MEOH      LP1A           28.8708811449       18.2365355926        3.5096613804  MEOH      669             0.0000000000
     21129      1361  MEOH      LP1B           29.1352988444       18.8339150015        3.5856233563  MEOH      669             0.0000000000
     21130      1362  MEOH      C1             11.0163639124      -10.9500599394      -10.4242766621  MEOH      670             0.0000000000
     21131      1362  MEOH      DC1            11.0238373376      -10.9673631250      -10.4090595390  MEOH      670             0.0000000000
     21132      1362  MEOH      O1             10.7248781992      -12.3198553650      -10.6630202513  MEOH      670             0.0000000000
     21133      1362  MEOH      DO1            10.7361587260      -12.3280094425      -10.6469787722  MEOH      670             0.0000000000
     21134      1362  MEOH      HO1             9.7662075472      -12.3637228900      -10.8041805194  MEOH      670             0.0000000000
     21135      1362  MEOH      HO2            11.3060847218      -12.5643595203      -11.4001204457  MEOH      670             0.0000000000
     21136      1362  MEOH      H1A            12.1083902750      -10.8331100820      -10.2565800480  MEOH      670             0.0000000000
     21137      1362  MEOH      H1B            10.4703427776      -10.5870192106       -9.5274024504  MEOH      670             0.0000000000
     21138      1362  MEOH      H1C            10.7059940867      -10.3355007429      -11.2962334076  MEOH      670             0.0000000000
     21139      1362  MEOH      LP1A           10.7512158788      -12.3900259834      -11.0049009482  MEOH      670             0.0000000000
     21140      1362  MEOH      LP1B           10.6605424223      -12.4831003779      -10.3601804032  MEOH      670             0.0000000000
     21141      1363  MEOH      C1              4.7250072829       20.6559934412      -21.0201225271  MEOH      671             0.0000000000
     21142      1363  MEOH      DC1             4.7373906194       20.6551167360      -21.0221073822  MEOH      671             0.0000000000
     21143      1363  MEOH      O1              4.6463854287       21.4331726921      -22.2068236236  MEOH      671             0.0000000000
     21144      1363  MEOH      DO1             4.6542984435       21.4297807908      -22.2119227520  MEOH      671             0.0000000000
     21145      1363  MEOH      HO1             4.1631825507       22.2400647488      -21.9694627432  MEOH      671             0.0000000000
     21146      1363  MEOH      HO2             5.5616054198       21.5286819342      -22.5136629197  MEOH      671             0.0000000000
     21147      1363  MEOH      H1A             5.3517552910       19.7627801821      -21.2291153707  MEOH      671             0.0000000000
     21148      1363  MEOH      H1B             3.7051225291       20.3378776671      -20.7152316561  MEOH      671             0.0000000000
     21149      1363  MEOH      H1C             5.1943180680       21.2427337416      -20.2017068576  MEOH      671             0.0000000000
     21150      1363  MEOH      LP1A            4.9263542775       21.6416841443      -22.2321301050  MEOH      671             0.0000000000
     21151      1363  MEOH      LP1B            4.3589372952       21.3475052183      -22.3871972761  MEOH      671             0.0000000000
     21152      1364  MEOH      C1             -0.3472746523      -22.2809225546       35.5195475980  MEOH      672             0.0000000000
     21153      1364  MEOH      DC1            -0.3749433106      -22.2789317169       35.5086024380  MEOH      672             0.0000000000
     21154      1364  MEOH      O1              1.0045073372      -22.5867126494       35.8369415234  MEOH      672             0.0000000000
     21155      1364  MEOH      DO1             0.9814935445      -22.5859112880       35.8465181603  MEOH      672             0.0000000000
     21156      1364  MEOH      HO1             1.3803178908      -21.8683506847       36.3695037414  MEOH      672             0.0000000000
     21157      1364  MEOH      HO2             1.0425886140      -23.5163260035       36.1112931742  MEOH      672             0.0000000000
     21158      1364  MEOH      H1A            -0.6752171811      -22.9629950505       34.7061892463  MEOH      672             0.0000000000
     21159      1364  MEOH      H1B            -0.4219602567      -21.2270269525       35.1759677354  MEOH      672             0.0000000000
     21160      1364  MEOH      H1C            -0.9810524854      -22.4337891835       36.4191466490  MEOH      672             0.0000000000
     21161      1364  MEOH      LP1A            1.0190943863      -22.7692003179       36.1352458460  MEOH      672             0.0000000000
     21162      1364  MEOH      LP1B            1.2166638470      -22.4655955040       35.5863018370  MEOH      672             0.0000000000
     21163      1365  MEOH      C1              2.6123210842       10.2701955460        5.5950022149  MEOH      673             0.0000000000
     21164      1365  MEOH      DC1             2.6144087383       10.2626472936        5.5824905156  MEOH      673             0.0000000000
     21165      1365  MEOH      O1              1.1950222199       10.2405765725        5.7814583898  MEOH      673             0.0000000000
     21166      1365  MEOH      DO1             1.1967220855       10.2295349082        5.7574192514  MEOH      673             0.0000000000
     21167      1365  MEOH      HO1             0.8664514302       11.1523818787        5.8208578875  MEOH      673             0.0000000000
     21168      1365  MEOH      HO2             0.8294254246        9.5604877416        5.1943313462  MEOH      673             0.0000000000
     21169      1365  MEOH      H1A             3.0300457305        9.2506431558        5.7376207387  MEOH      673             0.0000000000
     21170      1365  MEOH      H1B             3.0843913243       10.9583417369        6.3284362683  MEOH      673             0.0000000000
     21171      1365  MEOH      H1C             2.8463256735       10.6196673918        4.5666869510  MEOH      673             0.0000000000
     21172      1365  MEOH      LP1A            1.0336204661       10.2310001454        5.4710429167  MEOH      673             0.0000000000
     21173      1365  MEOH      LP1B            1.1193480700       10.2337161201        6.1231107822  MEOH      673             0.0000000000
     21174      1366  MEOH      C1             -7.3270571308       23.8686087280      -28.9466997376  MEOH      674             0.0000000000
     21175      1366  MEOH      DC1            -7.3408942126       23.8697089377      -28.9615981127  MEOH      674             0.0000000000
     21176      1366  MEOH      O1             -8.4161632076       24.6604913536      -28.4679418370  MEOH      674             0.0000000000
     21177      1366  MEOH      DO1            -8.4265707232       24.6667694925      -28.4800361287  MEOH      674             0.0000000000
     21178      1366  MEOH      HO1            -8.6278439513       24.2959313141      -27.5943359522  MEOH      674             0.0000000000
     21179      1366  MEOH      HO2            -8.1180106583       25.5804186477      -28.5436969098  MEOH      674             0.0000000000
     21180      1366  MEOH      H1A            -7.0586043464       24.1592933116      -29.9848502929  MEOH      674             0.0000000000
     21181      1366  MEOH      H1B            -7.6124651735       22.7959247070      -28.8996652550  MEOH      674             0.0000000000
     21182      1366  MEOH      H1C            -6.4304496460       23.9766351004      -28.2995936241  MEOH      674             0.0000000000
     21183      1366  MEOH      LP1A           -8.2944568018       24.9387361791      -28.2939666436  MEOH      674             0.0000000000
     21184      1366  MEOH      LP1B           -8.7200792576       24.5210843169      -28.5713860859  MEOH      674             0.0000000000
     21185      1367  MEOH      C1            -18.6073431848      -32.8673206801       14.8794872746  MEOH      675             0.0000000000
     21186      1367  MEOH      DC1           -18.6171601177      -32.8745230930       14.8719618216  MEOH      675             0.0000000000
     21187      1367  MEOH      O1            -19.3216077002      -34.0606458902       14.5470060573  MEOH      675             0.0000000000
     21188      1367  MEOH      DO1           -19.3307144030      -34.0641273146       14.5424886744  MEOH      675             0.0000000000
     21189      1367  MEOH      HO1           -18.9775710304      -34.7669231489       15.1159622988  MEOH      675             0.0000000000
     21190      1367  MEOH      HO2           -20.2629957735      -33.8272439850       14.5324442560  MEOH      675             0.0000000000
     21191      1367  MEOH      H1A           -18.8418046724      -32.0734181331       14.1384963470  MEOH      675             0.0000000000
     21192      1367  MEOH      H1B           -17.5128322355      -33.0563306860       14.8541495379  MEOH      675             0.0000000000
     21193      1367  MEOH      H1C           -18.8926516382      -32.5140755101       15.8934586440  MEOH      675             0.0000000000
     21194      1367  MEOH      LP1A          -19.6110761241      -34.0852150131       14.7422095147  MEOH      675             0.0000000000
     21195      1367  MEOH      LP1B          -19.1577522773      -34.2300761971       14.2882691804  MEOH      675             0.0000000000
     21196      1368  MEOH      C1              1.4429454843       11.1083058324      -18.4192191451  MEOH      676             0.0000000000
     21197      1368  MEOH      DC1             1.4533885160       11.0995725181      -18.4438499209  MEOH      676             0.0000000000
     21198      1368  MEOH      O1              0.8509196199       11.8887724362      -19.4665070822  MEOH      676             0.0000000000
     21199      1368  MEOH      DO1             0.8635824738       11.8753629312      -19.4899045004  MEOH      676             0.0000000000
     21200      1368  MEOH      HO1            -0.0715632768       11.5988984233      -19.5433078805  MEOH      676             0.0000000000
     21201      1368  MEOH      HO2             0.9933757678       12.8088522389      -19.1943685096  MEOH      676             0.0000000000
     21202      1368  MEOH      H1A             2.4142169708       11.5463706623      -18.1044940201  MEOH      676             0.0000000000
     21203      1368  MEOH      H1B             1.5957855826       10.0570772913      -18.7446103881  MEOH      676             0.0000000000
     21204      1368  MEOH      H1C             0.8001588643       11.1130048720      -17.5130600636  MEOH      676             0.0000000000
     21205      1368  MEOH      LP1A            0.7167520168       12.1839119092      -19.3346293140  MEOH      676             0.0000000000
     21206      1368  MEOH      LP1B            0.8962228127       11.7293934061      -19.7748023067  MEOH      676             0.0000000000
     21207      1369  MEOH      C1            -26.3687755272      -20.8188277827        5.1892554983  MEOH      677             0.0000000000
     21208      1369  MEOH      DC1           -26.3605544219      -20.8388395348        5.1558832174  MEOH      677             0.0000000000
     21209      1369  MEOH      O1            -26.1141249610      -21.4812417725        3.9495924456  MEOH      677             0.0000000000
     21210      1369  MEOH      DO1           -26.1098746593      -21.4992419406        3.9111564951  MEOH      677             0.0000000000
     21211      1369  MEOH      HO1           -26.0898851069      -20.7506287897        3.3120055113  MEOH      677             0.0000000000
     21212      1369  MEOH      HO2           -25.3335496349      -22.0349363963        4.1077835466  MEOH      677             0.0000000000
     21213      1369  MEOH      H1A           -26.4588220176      -21.5493833932        6.0214220258  MEOH      677             0.0000000000
     21214      1369  MEOH      H1B           -27.3126431509      -20.2368593902        5.1203519316  MEOH      677             0.0000000000
     21215      1369  MEOH      H1C           -25.5414260917      -20.1136968853        5.4186118368  MEOH      677             0.0000000000
     21216      1369  MEOH      LP1A          -25.7691608857      -21.5095753851        3.8976598630  MEOH      677             0.0000000000
     21217      1369  MEOH      LP1B          -26.4162283940      -21.5740417280        3.7991873791  MEOH      677             0.0000000000
     21218      1370  MEOH      C1             15.0805733403      -36.5740558843      -22.7583822703  MEOH      678             0.0000000000
     21219      1370  MEOH      DC1            15.0767298785      -36.5671293063      -22.7582311121  MEOH      678             0.0000000000
     21220      1370  MEOH      O1             14.3027846311      -35.4952083209      -23.2782551365  MEOH      678             0.0000000000
     21221      1370  MEOH      DO1            14.3044324713      -35.4891202278      -23.2752387902  MEOH      678             0.0000000000
     21222      1370  MEOH      HO1            14.1025277093      -34.8955825469      -22.5425608410  MEOH      678             0.0000000000
     21223      1370  MEOH      HO2            14.7809562873      -35.1776931990      -24.0601988786  MEOH      678             0.0000000000
     21224      1370  MEOH      H1A            15.2033936162      -37.3550906857      -23.5389082588  MEOH      678             0.0000000000
     21225      1370  MEOH      H1B            14.5662876766      -37.0136019550      -21.8771158466  MEOH      678             0.0000000000
     21226      1370  MEOH      H1C            16.0874394049      -36.2265700024      -22.4424783444  MEOH      678             0.0000000000
     21227      1370  MEOH      LP1A           14.5132465965      -35.2386081886      -23.3894402670  MEOH      678             0.0000000000
     21228      1370  MEOH      LP1B           13.9624160172      -35.5756163367      -23.2646994121  MEOH      678             0.0000000000
     21229      1371  MEOH      C1             14.5902514350      -22.0989641307       35.6344034505  MEOH      679             0.0000000000
     21230      1371  MEOH      DC1            14.6006334182      -22.1003639862       35.6461169678  MEOH      679             0.0000000000
     21231      1371  MEOH      O1             13.5013416011      -21.3320630638       36.1547856417  MEOH      679             0.0000000000
     21232      1371  MEOH      DO1            13.5127328450      -21.3358468808       36.1544118117  MEOH      679             0.0000000000
     21233      1371  MEOH      HO1            13.5779986281      -20.4142764428       35.8503329850  MEOH      679             0.0000000000
     21234      1371  MEOH      HO2            12.6957370348      -21.8488008162       35.9970409807  MEOH      679             0.0000000000
     21235      1371  MEOH      H1A            14.5007230574      -23.1504085177       35.9819237696  MEOH      679             0.0000000000
     21236      1371  MEOH      H1B            15.5524033350      -21.6737493882       35.9918627414  MEOH      679             0.0000000000
     21237      1371  MEOH      H1C            14.5787625803      -22.1133193678       34.5235556061  MEOH      679             0.0000000000
     21238      1371  MEOH      LP1A           13.2293615081      -21.3458613240       35.9349301504  MEOH      679             0.0000000000
     21239      1371  MEOH      LP1B           13.5869529737      -21.1992057064       36.4670669499  MEOH      679             0.0000000000
     21240      1372  MEOH      C1             15.6403567085      -20.1154952450       18.1277087791  MEOH      680             0.0000000000
     21241      1372  MEOH      DC1            15.6405437472      -20.1257152779       18.1151865352  MEOH      680             0.0000000000
     21242      1372  MEOH      O1             16.7379279524      -20.6172283956       18.8941182334  MEOH      680             0.0000000000
     21243      1372  MEOH      DO1            16.7591072733      -20.6285431425       18.8955694101  MEOH      680             0.0000000000
     21244      1372  MEOH      HO1            16.4539039888      -20.4246516999       19.8013914031  MEOH      680             0.0000000000
     21245      1372  MEOH      HO2            16.8789184391      -21.5254762125       18.5841059965  MEOH      680             0.0000000000
     21246      1372  MEOH      H1A            15.8254241713      -20.2111570561       17.0364160346  MEOH      680             0.0000000000
     21247      1372  MEOH      H1B            15.4879027866      -19.0454321178       18.3846984799  MEOH      680             0.0000000000
     21248      1372  MEOH      H1C            14.7231259250      -20.6721199994       18.4161140020  MEOH      680             0.0000000000
     21249      1372  MEOH      LP1A           16.6863727321      -20.9549585178       18.9701473317  MEOH      680             0.0000000000
     21250      1372  MEOH      LP1B           16.9785916323      -20.3667044595       18.9367650456  MEOH      680             0.0000000000
     21251      1373  MEOH      C1            -26.1142569795      -29.8696704738       -2.8796950798  MEOH      681             0.0000000000
     21252      1373  MEOH      DC1           -26.1124935934      -29.8708997696       -2.8725480184  MEOH      681             0.0000000000
     21253      1373  MEOH      O1            -26.8971115427      -30.8767271726       -3.5261008859  MEOH      681             0.0000000000
     21254      1373  MEOH      DO1           -26.8979890354      -30.8836546485       -3.5363749320  MEOH      681             0.0000000000
     21255      1373  MEOH      HO1           -27.1976792820      -31.4625270971       -2.8137825001  MEOH      681             0.0000000000
     21256      1373  MEOH      HO2           -27.5503470450      -30.3950682623       -4.0573146598  MEOH      681             0.0000000000
     21257      1373  MEOH      H1A           -25.6950821131      -29.1728460265       -3.6366951602  MEOH      681             0.0000000000
     21258      1373  MEOH      H1B           -25.2696040365      -30.3328957179       -2.3262469981  MEOH      681             0.0000000000
     21259      1373  MEOH      H1C           -26.7531319253      -29.2872097448       -2.1819133767  MEOH      681             0.0000000000
     21260      1373  MEOH      LP1A          -27.2309742277      -30.7737717527       -3.5469788430  MEOH      681             0.0000000000
     21261      1373  MEOH      LP1B          -26.6923435290      -31.1433057965       -3.6235990800  MEOH      681             0.0000000000
     21262      1374  MEOH      C1             23.8545556897        4.5110698082       24.7202009635  MEOH      682             0.0000000000
     21263      1374  MEOH      DC1            23.8515008600        4.5281773631       24.7180749949  MEOH      682             0.0000000000
     21264      1374  MEOH      O1             22.8331408234        5.4160762184       24.2983209101  MEOH      682             0.0000000000
     21265      1374  MEOH      DO1            22.8268249133        5.4246059508       24.2860947118  MEOH      682             0.0000000000
     21266      1374  MEOH      HO1            22.1709618514        5.4282351382       25.0070318312  MEOH      682             0.0000000000
     21267      1374  MEOH      HO2            23.2853013457        6.2309284640       24.0291245488  MEOH      682             0.0000000000
     21268      1374  MEOH      H1A            24.5998142520        4.3712893309       23.9081836644  MEOH      682             0.0000000000
     21269      1374  MEOH      H1B            23.4088841389        3.5233291804       24.9652852774  MEOH      682             0.0000000000
     21270      1374  MEOH      H1C            24.3666652806        4.9146500156       25.6197496194  MEOH      682             0.0000000000
     21271      1374  MEOH      LP1A           22.9102759979        5.7409610929       24.4032017147  MEOH      682             0.0000000000
     21272      1374  MEOH      LP1B           22.5905725653        5.2448541756       24.1130005058  MEOH      682             0.0000000000
     21273      1375  MEOH      C1             35.6887890296       16.3588488308       20.3558897769  MEOH      683             0.0000000000
     21274      1375  MEOH      DC1            35.6782463752       16.3598727361       20.3421555169  MEOH      683             0.0000000000
     21275      1375  MEOH      O1             37.1155267857       16.4329322064       20.3381776352  MEOH      683             0.0000000000
     21276      1375  MEOH      DO1            37.1047845225       16.4328980732       20.3326097254  MEOH      683             0.0000000000
     21277      1375  MEOH      HO1            37.4133756076       16.5330134370       21.2558757488  MEOH      683             0.0000000000
     21278      1375  MEOH      HO2            37.4189819817       15.6709041514       19.8203666780  MEOH      683             0.0000000000
     21279      1375  MEOH      H1A            35.3030011554       16.3499036502       19.3140602801  MEOH      683             0.0000000000
     21280      1375  MEOH      H1B            35.2671265845       17.2466856320       20.8738353308  MEOH      683             0.0000000000
     21281      1375  MEOH      H1C            35.3659274497       15.4339997288       20.8800419876  MEOH      683             0.0000000000
     21282      1375  MEOH      LP1A           37.2523727304       16.1116038141       20.3610085729  MEOH      683             0.0000000000
     21283      1375  MEOH      LP1B           37.2176673037       16.7656201136       20.3009476609  MEOH      683             0.0000000000
     21284      1376  MEOH      C1             34.7752696530      -14.6357097220      -33.9458316805  MEOH      684             0.0000000000
     21285      1376  MEOH      DC1            34.7715168675      -14.6380833214      -33.9497238299  MEOH      684             0.0000000000
     21286      1376  MEOH      O1             33.5692848986      -15.2792228439      -34.3670994989  MEOH      684             0.0000000000
     21287      1376  MEOH      DO1            33.5679116732      -15.2846423258      -34.3727141335  MEOH      684             0.0000000000
     21288      1376  MEOH      HO1            32.8328389246      -14.7317710505      -34.0527050621  MEOH      684             0.0000000000
     21289      1376  MEOH      HO2            33.6796264010      -15.4621834338      -35.3132761079  MEOH      684             0.0000000000
     21290      1376  MEOH      H1A            35.6449996089      -15.2901376301      -34.1685757461  MEOH      684             0.0000000000
     21291      1376  MEOH      H1B            34.7441867936      -14.4441518498      -32.8519119219  MEOH      684             0.0000000000
     21292      1376  MEOH      H1C            34.9022337774      -13.6722704923      -34.4843351269  MEOH      684             0.0000000000
     21293      1376  MEOH      LP1A           33.4784529426      -15.1664776085      -34.6857498836  MEOH      684             0.0000000000
     21294      1376  MEOH      LP1B           33.4644290977      -15.5080193814      -34.1238765447  MEOH      684             0.0000000000
     21295      1377  MEOH      C1              5.1664293367       22.3673259050       25.5873762840  MEOH      685             0.0000000000
     21296      1377  MEOH      DC1             5.1646412406       22.3702863754       25.5922239802  MEOH      685             0.0000000000
     21297      1377  MEOH      O1              6.3688832375       23.1395155362       25.6506181124  MEOH      685             0.0000000000
     21298      1377  MEOH      DO1             6.3679882344       23.1406301647       25.6483274716  MEOH      685             0.0000000000
     21299      1377  MEOH      HO1             6.8541657279       23.0025425498       24.8219810957  MEOH      685             0.0000000000
     21300      1377  MEOH      HO2             6.1015233463       24.0318497212       25.9210961920  MEOH      685             0.0000000000
     21301      1377  MEOH      H1A             4.6499535274       22.4045361820       26.5703254868  MEOH      685             0.0000000000
     21302      1377  MEOH      H1B             5.3974965521       21.3101946697       25.3355777655  MEOH      685             0.0000000000
     21303      1377  MEOH      H1C             4.4822282999       22.7786606378       24.8147226236  MEOH      685             0.0000000000
     21304      1377  MEOH      LP1A            6.3108872186       23.4617165624       25.5268321661  MEOH      685             0.0000000000
     21305      1377  MEOH      LP1B            6.6252086105       22.9502551475       25.7954552915  MEOH      685             0.0000000000
     21306      1378  MEOH      C1            -27.0376771718       22.7828323720       23.7551199636  MEOH      686             0.0000000000
     21307      1378  MEOH      DC1           -27.0406893476       22.7846372602       23.7684394520  MEOH      686             0.0000000000
     21308      1378  MEOH      O1            -26.3142694548       22.6414385120       24.9749301175  MEOH      686             0.0000000000
     21309      1378  MEOH      DO1           -26.3203918960       22.6478792632       24.9902304418  MEOH      686             0.0000000000
     21310      1378  MEOH      HO1           -26.2936964871       21.6909146277       25.1672348198  MEOH      686             0.0000000000
     21311      1378  MEOH      HO2           -25.4773347739       23.1099923632       24.8303699941  MEOH      686             0.0000000000
     21312      1378  MEOH      H1A           -26.9933876831       23.8356852605       23.4031821313  MEOH      686             0.0000000000
     21313      1378  MEOH      H1B           -28.0983419464       22.4815393863       23.8912587645  MEOH      686             0.0000000000
     21314      1378  MEOH      H1C           -26.5951222351       22.1181450248       22.9826842973  MEOH      686             0.0000000000
     21315      1378  MEOH      LP1A          -25.9724404512       22.6070212857       24.9080841240  MEOH      686             0.0000000000
     21316      1378  MEOH      LP1B          -26.5331467445       22.6634845110       25.2471555866  MEOH      686             0.0000000000
     21317      1379  MEOH      C1            -10.0098682632        7.3339214172       18.7761277511  MEOH      687             0.0000000000
     21318      1379  MEOH      DC1            -9.9985060753        7.3408398082       18.7622288571  MEOH      687             0.0000000000
     21319      1379  MEOH      O1             -8.8907355672        7.7087057065       17.9691981014  MEOH      687             0.0000000000
     21320      1379  MEOH      DO1            -8.8710627261        7.7130068124       17.9585748356  MEOH      687             0.0000000000
     21321      1379  MEOH      HO1            -9.0714465812        7.3260118695       17.0963928789  MEOH      687             0.0000000000
     21322      1379  MEOH      HO2            -8.7892565429        8.6667636960       18.0820116505  MEOH      687             0.0000000000
     21323      1379  MEOH      H1A            -9.8554069285        7.6638683270       19.8256980121  MEOH      687             0.0000000000
     21324      1379  MEOH      H1B           -10.1447911265        6.2311535337       18.7716761106  MEOH      687             0.0000000000
     21325      1379  MEOH      H1C           -10.9367943732        7.8119873379       18.3932675123  MEOH      687             0.0000000000
     21326      1379  MEOH      LP1A           -8.9508220906        8.0183993605       17.8176083578  MEOH      687             0.0000000000
     21327      1379  MEOH      LP1B           -8.6386228271        7.4672665654       17.9946206791  MEOH      687             0.0000000000
     21328      1380  MEOH      C1             14.0018662713      -31.9771987141       10.2930092838  MEOH      688             0.0000000000
     21329      1380  MEOH      DC1            13.9936908351      -31.9499920126       10.3054431341  MEOH      688             0.0000000000
     21330      1380  MEOH      O1             14.1203054112      -30.6234668783       10.7310342843  MEOH      688             0.0000000000
     21331      1380  MEOH      DO1            14.1079173687      -30.6002300999       10.7389390728  MEOH      688             0.0000000000
     21332      1380  MEOH      HO1            14.8041649931      -30.2275148153       10.1684882540  MEOH      688             0.0000000000
     21333      1380  MEOH      HO2            13.2201933167      -30.2641589965       10.7709850578  MEOH      688             0.0000000000
     21334      1380  MEOH      H1A            13.3261658403      -32.5467827979       10.9663026071  MEOH      688             0.0000000000
     21335      1380  MEOH      H1B            14.9946444553      -32.4758668923       10.2995306094  MEOH      688             0.0000000000
     21336      1380  MEOH      H1C            13.6020482989      -32.0027340333        9.2567590548  MEOH      688             0.0000000000
     21337      1380  MEOH      LP1A           13.8957609597      -30.4206492261       10.5551229736  MEOH      688             0.0000000000
     21338      1380  MEOH      LP1B           14.3565751048      -30.6011235079       10.9882839795  MEOH      688             0.0000000000
     21339      1381  MEOH      C1             24.2495734754       -5.7812681136       -9.5030853705  MEOH      689             0.0000000000
     21340      1381  MEOH      DC1            24.2305585254       -5.7889581077       -9.5082763204  MEOH      689             0.0000000000
     21341      1381  MEOH      O1             25.4549658503       -5.6773083220       -8.7501622579  MEOH      689             0.0000000000
     21342      1381  MEOH      DO1            25.4354970861       -5.6812326327       -8.7494071650  MEOH      689             0.0000000000
     21343      1381  MEOH      HO1            26.1849236115       -5.9759174715       -9.3148694774  MEOH      689             0.0000000000
     21344      1381  MEOH      HO2            25.4682955530       -4.7703941717       -8.4063177538  MEOH      689             0.0000000000
     21345      1381  MEOH      H1A            23.4211508768       -5.3677136026       -8.8890742432  MEOH      689             0.0000000000
     21346      1381  MEOH      H1B            24.0380200504       -6.8466830053       -9.7364461614  MEOH      689             0.0000000000
     21347      1381  MEOH      H1C            24.3245136801       -5.1876357212      -10.4391973024  MEOH      689             0.0000000000
     21348      1381  MEOH      LP1A           25.5947681157       -5.3590966516       -8.7913527833  MEOH      689             0.0000000000
     21349      1381  MEOH      LP1B           25.5117300388       -5.9740715285       -8.5735003599  MEOH      689             0.0000000000
     21350      1382  MEOH      C1             19.3284491475      -18.9136221109       10.1849238668  MEOH      690             0.0000000000
     21351      1382  MEOH      DC1            19.3313707743      -18.9081526208       10.1792662929  MEOH      690             0.0000000000
     21352      1382  MEOH      O1             18.1080265228      -18.3564163204       10.6780589176  MEOH      690             0.0000000000
     21353      1382  MEOH      DO1            18.1147802533      -18.3497300612       10.6701014148  MEOH      690             0.0000000000
     21354      1382  MEOH      HO1            18.3170471507      -17.6488824380       11.3078256865  MEOH      690             0.0000000000
     21355      1382  MEOH      HO2            17.5485957828      -18.1917147259        9.9029391644  MEOH      690             0.0000000000
     21356      1382  MEOH      H1A            19.1047358112      -19.8251807825        9.5905047123  MEOH      690             0.0000000000
     21357      1382  MEOH      H1B            19.9877022429      -19.2015103030       11.0315800820  MEOH      690             0.0000000000
     21358      1382  MEOH      H1C            19.8524942868      -18.1767039022        9.5394401364  MEOH      690             0.0000000000
     21359      1382  MEOH      LP1A           18.0033316701      -18.0948577839       10.4703906249  MEOH      690             0.0000000000
     21360      1382  MEOH      LP1B           18.0023287752      -18.5319625655       10.9618044056  MEOH      690             0.0000000000
     21361      1383  MEOH      C1             25.7330737469       -7.5812188462      -33.0580899778  MEOH      691             0.0000000000
     21362      1383  MEOH      DC1            25.7326912234       -7.5917355268      -33.0632112892  MEOH      691             0.0000000000
     21363      1383  MEOH      O1             26.5692035139       -8.4774869218      -33.7923779839  MEOH      691             0.0000000000
     21364      1383  MEOH      DO1            26.5717596008       -8.4863271849      -33.7979623633  MEOH      691             0.0000000000
     21365      1383  MEOH      HO1            27.2476947510       -8.7842585225      -33.1707343351  MEOH      691             0.0000000000
     21366      1383  MEOH      HO2            25.9729476556       -9.0993851403      -34.2380477709  MEOH      691             0.0000000000
     21367      1383  MEOH      H1A            24.9969061267       -7.1104068157      -33.7441761727  MEOH      691             0.0000000000
     21368      1383  MEOH      H1B            26.3499563023       -6.7870741436      -32.5857435950  MEOH      691             0.0000000000
     21369      1383  MEOH      H1C            25.1850727047       -8.1310124925      -32.2632674790  MEOH      691             0.0000000000
     21370      1383  MEOH      LP1A           26.4427687275       -8.8031979172      -33.7717238742  MEOH      691             0.0000000000
     21371      1383  MEOH      LP1B           26.8293252148       -8.3002598473      -33.9454376613  MEOH      691             0.0000000000
     21372      1384  MEOH      C1            -27.9873342062        2.7929398290       22.9354766283  MEOH      692             0.0000000000
     21373      1384  MEOH      DC1           -27.9848826438        2.7833845415       22.9399601676  MEOH      692             0.0000000000
     21374      1384  MEOH      O1            -26.5777460025        2.6895035541       23.1346399593  MEOH      692             0.0000000000
     21375      1384  MEOH      DO1           -26.5766399371        2.6780169311       23.1487729254  MEOH      692             0.0000000000
     21376      1384  MEOH      HO1           -26.2044089975        3.5482323545       22.8814516340  MEOH      692             0.0000000000
     21377      1384  MEOH      HO2           -26.4590866391        2.3360559017       24.0301257008  MEOH      692             0.0000000000
     21378      1384  MEOH      H1A           -28.4606612164        1.7909509917       23.0148549092  MEOH      692             0.0000000000
     21379      1384  MEOH      H1B           -28.1955785371        3.1922075186       21.9198287501  MEOH      692             0.0000000000
     21380      1384  MEOH      H1C           -28.4308379709        3.4716770581       23.6950430737  MEOH      692             0.0000000000
     21381      1384  MEOH      LP1A          -26.4960077752        2.7820940915       23.4621240881  MEOH      692             0.0000000000
     21382      1384  MEOH      LP1B          -26.4243493255        2.5687360597       22.8441495605  MEOH      692             0.0000000000
     21383      1385  MEOH      C1             14.4483236272        1.5770255052       -7.0151623304  MEOH      693             0.0000000000
     21384      1385  MEOH      DC1            14.4515197946        1.5638946444       -7.0060173317  MEOH      693             0.0000000000
     21385      1385  MEOH      O1             14.4031444801        2.9062698048       -6.5084854724  MEOH      693             0.0000000000
     21386      1385  MEOH      DO1            14.4217625549        2.9070196551       -6.5037072275  MEOH      693             0.0000000000
     21387      1385  MEOH      HO1            14.2851165814        3.4726757923       -7.2870441872  MEOH      693             0.0000000000
     21388      1385  MEOH      HO2            13.7043623121        2.8885232122       -5.8359614648  MEOH      693             0.0000000000
     21389      1385  MEOH      H1A            14.4127743562        0.8367391569       -6.1874949018  MEOH      693             0.0000000000
     21390      1385  MEOH      H1B            15.3941535619        1.4182522294       -7.5759811796  MEOH      693             0.0000000000
     21391      1385  MEOH      H1C            13.5827253819        1.4195444753       -7.6935872744  MEOH      693             0.0000000000
     21392      1385  MEOH      LP1A           14.0736199223        2.9926079293       -6.4281157391  MEOH      693             0.0000000000
     21393      1385  MEOH      LP1B           14.7264176753        3.0395112398       -6.4929561041  MEOH      693             0.0000000000
     21394      1386  MEOH      C1              1.9050312706      -16.5954365659       -8.4094550419  MEOH      694             0.0000000000
     21395      1386  MEOH      DC1             1.8958443810      -16.5977410463       -8.4041283425  MEOH      694             0.0000000000
     21396      1386  MEOH      O1              1.4154591033      -15.4083127503       -7.7804102553  MEOH      694             0.0000000000
     21397      1386  MEOH      DO1             1.4103054867      -15.4075086217       -7.7813728482  MEOH      694             0.0000000000
     21398      1386  MEOH      HO1             1.3965247772      -15.5628781448       -6.8229913126  MEOH      694             0.0000000000
     21399      1386  MEOH      HO2             1.9392098091      -14.6796115452       -8.1486218140  MEOH      694             0.0000000000
     21400      1386  MEOH      H1A             1.9039068405      -16.4651395232       -9.5127874572  MEOH      694             0.0000000000
     21401      1386  MEOH      H1B             1.2648468946      -17.4640922481       -8.1450268465  MEOH      694             0.0000000000
     21402      1386  MEOH      H1C             2.9483646469      -16.7919681246       -8.0821145292  MEOH      694             0.0000000000
     21403      1386  MEOH      LP1A            1.6814830824      -15.1925607152       -7.7084220485  MEOH      694             0.0000000000
     21404      1386  MEOH      LP1B            1.0664249330      -15.4202857082       -7.7573495482  MEOH      694             0.0000000000
     21405      1387  MEOH      C1            -23.8272022393      -13.1605666928       11.7976301174  MEOH      695             0.0000000000
     21406      1387  MEOH      DC1           -23.8164803447      -13.1505805469       11.7832578956  MEOH      695             0.0000000000
     21407      1387  MEOH      O1            -24.5102001489      -13.7661106476       10.6975064749  MEOH      695             0.0000000000
     21408      1387  MEOH      DO1           -24.4945794752      -13.7448116324       10.6832779295  MEOH      695             0.0000000000
     21409      1387  MEOH      HO1           -24.1829552918      -14.6760435413       10.6211328351  MEOH      695             0.0000000000
     21410      1387  MEOH      HO2           -25.4534847967      -13.6305366249       10.8784312044  MEOH      695             0.0000000000
     21411      1387  MEOH      H1A           -24.1804601333      -12.1141851915       11.9185251731  MEOH      695             0.0000000000
     21412      1387  MEOH      H1B           -22.7315069977      -13.1711743593       11.6141623683  MEOH      695             0.0000000000
     21413      1387  MEOH      H1C           -24.0491280324      -13.7088136999       12.7381061474  MEOH      695             0.0000000000
     21414      1387  MEOH      LP1A          -24.8073932836      -13.9142979023       10.8080360104  MEOH      695             0.0000000000
     21415      1387  MEOH      LP1B          -24.3331572978      -13.7095754299       10.4009266408  MEOH      695             0.0000000000
     21416      1388  MEOH      C1            -26.9859759896      -34.8840090742       19.0236233909  MEOH      696             0.0000000000
     21417      1388  MEOH      DC1           -26.9919520644      -34.8897904686       19.0142014924  MEOH      696             0.0000000000
     21418      1388  MEOH      O1            -25.8482277783      -34.0981430924       18.6642900850  MEOH      696             0.0000000000
     21419      1388  MEOH      DO1           -25.8524779969      -34.1052718206       18.6603204678  MEOH      696             0.0000000000
     21420      1388  MEOH      HO1           -25.7750199635      -33.3766800303       19.3085195983  MEOH      696             0.0000000000
     21421      1388  MEOH      HO2           -25.1159823053      -34.7218172711       18.5388026876  MEOH      696             0.0000000000
     21422      1388  MEOH      H1A           -27.1733990477      -35.6417859926       18.2330743782  MEOH      696             0.0000000000
     21423      1388  MEOH      H1B           -27.8802635563      -34.2332402196       19.1288405365  MEOH      696             0.0000000000
     21424      1388  MEOH      H1C           -26.7977406980      -35.4027487456       19.9878835364  MEOH      696             0.0000000000
     21425      1388  MEOH      LP1A          -25.5613461124      -34.2247780727       18.8197329732  MEOH      696             0.0000000000
     21426      1388  MEOH      LP1B          -25.9424620729      -33.8467720731       18.4397182514  MEOH      696             0.0000000000
     21427      1389  MEOH      C1            -27.8996591129       33.2565993579       13.0326090828  MEOH      697             0.0000000000
     21428      1389  MEOH      DC1           -27.8967322257       33.2694416648       13.0259740416  MEOH      697             0.0000000000
     21429      1389  MEOH      O1            -29.0986319834       33.4146968136       13.7923770845  MEOH      697             0.0000000000
     21430      1389  MEOH      DO1           -29.1018599715       33.4245426279       13.7818885560  MEOH      697             0.0000000000
     21431      1389  MEOH      HO1           -29.1116598611       34.3021053961       14.1838311458  MEOH      697             0.0000000000
     21432      1389  MEOH      HO2           -29.8281677938       33.0719319821       13.2527570582  MEOH      697             0.0000000000
     21433      1389  MEOH      H1A           -27.7968273702       32.1934643917       12.7268466318  MEOH      697             0.0000000000
     21434      1389  MEOH      H1B           -27.0100704438       33.5461739605       13.6318582387  MEOH      697             0.0000000000
     21435      1389  MEOH      H1C           -27.9440898251       33.9028241304       12.1299793382  MEOH      697             0.0000000000
     21436      1389  MEOH      LP1A          -29.3545309251       33.5380228705       13.5879109128  MEOH      697             0.0000000000
     21437      1389  MEOH      LP1B          -29.0468940699       33.3071987339       14.1214171294  MEOH      697             0.0000000000
     21438      1390  MEOH      C1             25.6026333125       28.2983558104       23.3263895378  MEOH      698             0.0000000000
     21439      1390  MEOH      DC1            25.5981363881       28.2847260006       23.3111313679  MEOH      698             0.0000000000
     21440      1390  MEOH      O1             24.7574353007       27.6130003080       22.3952997055  MEOH      698             0.0000000000
     21441      1390  MEOH      DO1            24.7502202359       27.6059943691       22.3833568823  MEOH      698             0.0000000000
     21442      1390  MEOH      HO1            25.3417311401       27.1067537320       21.8094560599  MEOH      698             0.0000000000
     21443      1390  MEOH      HO2            24.0879996030       27.1600255881       22.9315550082  MEOH      698             0.0000000000
     21444      1390  MEOH      H1A            24.9968213390       28.9648493421       23.9768503186  MEOH      698             0.0000000000
     21445      1390  MEOH      H1B            26.3491485570       28.9170214255       22.7839055776  MEOH      698             0.0000000000
     21446      1390  MEOH      H1C            26.1426725797       27.5688974193       23.9671461573  MEOH      698             0.0000000000
     21447      1390  MEOH      LP1A           24.6649035360       27.3012258593       22.5246618546  MEOH      698             0.0000000000
     21448      1390  MEOH      LP1B           24.6994246236       27.8148105272       22.1152864973  MEOH      698             0.0000000000
     21449      1391  MEOH      C1             -6.1723434991      -29.0213060699       33.8124212153  MEOH      699             0.0000000000
     21450      1391  MEOH      DC1            -6.1658393742      -29.0262523308       33.8062272926  MEOH      699             0.0000000000
     21451      1391  MEOH      O1             -7.5176017118      -28.7927275902       34.2495957261  MEOH      699             0.0000000000
     21452      1391  MEOH      DO1            -7.5079734930      -28.8093609529       34.2510909380  MEOH      699             0.0000000000
     21453      1391  MEOH      HO1            -7.8754690519      -28.0005648143       33.8191202864  MEOH      699             0.0000000000
     21454      1391  MEOH      HO2            -7.9833072760      -29.6436200227       34.2489666039  MEOH      699             0.0000000000
     21455      1391  MEOH      H1A            -5.6367057146      -29.6457629931       34.5590581521  MEOH      699             0.0000000000
     21456      1391  MEOH      H1B            -5.6153479340      -28.0627440439       33.7400625062  MEOH      699             0.0000000000
     21457      1391  MEOH      H1C            -6.1728312175      -29.5580498037       32.8396792515  MEOH      699             0.0000000000
     21458      1391  MEOH      LP1A           -7.7416311372      -28.9634301809       34.0418183403  MEOH      699             0.0000000000
     21459      1391  MEOH      LP1B           -7.5177562044      -28.5931413218       34.5371114606  MEOH      699             0.0000000000
     21460      1392  MEOH      C1             -9.8655272329      -10.1335448544        1.2988729775  MEOH      700             0.0000000000
     21461      1392  MEOH      DC1            -9.8735623775      -10.1272170852        1.2796537102  MEOH      700             0.0000000000
     21462      1392  MEOH      O1            -10.1330934814       -9.2312820586        0.2241849273  MEOH      700             0.0000000000
     21463      1392  MEOH      DO1           -10.1340340283       -9.2369769710        0.1964889128  MEOH      700             0.0000000000
     21464      1392  MEOH      HO1           -11.0957622164       -9.1123362043        0.2196252745  MEOH      700             0.0000000000
     21465      1392  MEOH      HO2            -9.5809003687       -8.4552105541        0.4077490501  MEOH      700             0.0000000000
     21466      1392  MEOH      H1A            -8.7686327044      -10.2672434158        1.4140601725  MEOH      700             0.0000000000
     21467      1392  MEOH      H1B           -10.3276517457      -11.1240077979        1.0995112643  MEOH      700             0.0000000000
     21468      1392  MEOH      H1C           -10.2724234844       -9.7217648444        2.2471312039  MEOH      700             0.0000000000
     21469      1392  MEOH      LP1A          -10.1194368189       -8.9009362246        0.3390114294  MEOH      700             0.0000000000
     21470      1392  MEOH      LP1B          -10.1803671581       -9.4098634505       -0.0730925289  MEOH      700             0.0000000000
     21471      1393  MEOH      C1             34.9278088404      -14.0627112179      -26.9613794405  MEOH      701             0.0000000000
     21472      1393  MEOH      DC1            34.9274270578      -14.0620637934      -26.9578066912  MEOH      701             0.0000000000
     21473      1393  MEOH      O1             36.1152514829      -14.3219949051      -27.7156864566  MEOH      701             0.0000000000
     21474      1393  MEOH      DO1            36.1121382916      -14.3204237577      -27.7162704467  MEOH      701             0.0000000000
     21475      1393  MEOH      HO1            36.1901032000      -15.2812624659      -27.8385805875  MEOH      701             0.0000000000
     21476      1393  MEOH      HO2            36.0773164189      -13.7330773439      -28.4855156828  MEOH      701             0.0000000000
     21477      1393  MEOH      H1A            34.8826266936      -12.9839693937      -26.6994717272  MEOH      701             0.0000000000
     21478      1393  MEOH      H1B            34.9288528999      -14.6658430857      -26.0283457530  MEOH      701             0.0000000000
     21479      1393  MEOH      H1C            34.0290826799      -14.3136964210      -27.5643874975  MEOH      701             0.0000000000
     21480      1393  MEOH      LP1A           36.0432748959      -14.3157581905      -28.0581488258  MEOH      701             0.0000000000
     21481      1393  MEOH      LP1B           36.3881448967      -14.3603645613      -27.4999158512  MEOH      701             0.0000000000
     21482      1394  MEOH      C1            -27.9157751888      -22.7127856149       29.7475873368  MEOH      702             0.0000000000
     21483      1394  MEOH      DC1           -27.9129521479      -22.6949122624       29.7433779538  MEOH      702             0.0000000000
     21484      1394  MEOH      O1            -26.9649421324      -21.7089175525       29.3796252032  MEOH      702             0.0000000000
     21485      1394  MEOH      DO1           -26.9641406600      -21.6950311557       29.3751256625  MEOH      702             0.0000000000
     21486      1394  MEOH      HO1           -27.0579882407      -20.9886106235       30.0225873714  MEOH      702             0.0000000000
     21487      1394  MEOH      HO2           -26.1165310586      -22.1694586663       29.2847540622  MEOH      702             0.0000000000
     21488      1394  MEOH      H1A           -27.8833399030      -23.5511535395       29.0192960655  MEOH      702             0.0000000000
     21489      1394  MEOH      H1B           -28.9396589159      -22.2815281923       29.7472014669  MEOH      702             0.0000000000
     21490      1394  MEOH      H1C           -27.6874112562      -23.1060188432       30.7612630958  MEOH      702             0.0000000000
     21491      1394  MEOH      LP1A          -26.6584860553      -21.7709091207       29.5369202072  MEOH      702             0.0000000000
     21492      1394  MEOH      LP1B          -27.1088647326      -21.4854390339       29.1519332252  MEOH      702             0.0000000000
     21493      1395  MEOH      C1             12.4231679271       20.9264342639      -11.3748593140  MEOH      703             0.0000000000
     21494      1395  MEOH      DC1            12.4279406391       20.9197341836      -11.3852767742  MEOH      703             0.0000000000
     21495      1395  MEOH      O1             12.5251390247       19.6941413154      -10.6499710480  MEOH      703             0.0000000000
     21496      1395  MEOH      DO1            12.5310756464       19.6829503716      -10.6576099010  MEOH      703             0.0000000000
     21497      1395  MEOH      HO1            12.5546186624       18.9712346559      -11.2960646275  MEOH      703             0.0000000000
     21498      1395  MEOH      HO2            13.2350453562       19.8206998181      -10.0011906955  MEOH      703             0.0000000000
     21499      1395  MEOH      H1A            12.2528137527       21.7706958829      -10.6730596456  MEOH      703             0.0000000000
     21500      1395  MEOH      H1B            11.5681280201       20.8863262886      -12.0831100519  MEOH      703             0.0000000000
     21501      1395  MEOH      H1C            13.3643315008       21.1251427310      -11.9307793392  MEOH      703             0.0000000000
     21502      1395  MEOH      LP1A           12.8615989756       19.6158077686      -10.5937700080  MEOH      703             0.0000000000
     21503      1395  MEOH      LP1B           12.2056078479       19.5724532698      -10.5751923972  MEOH      703             0.0000000000
     21504      1396  MEOH      C1              7.0644294928       20.0175867891       27.6742201607  MEOH      704             0.0000000000
     21505      1396  MEOH      DC1             7.0640110087       20.0204357955       27.6817061466  MEOH      704             0.0000000000
     21506      1396  MEOH      O1              8.1913876208       20.6370907035       27.0485304245  MEOH      704             0.0000000000
     21507      1396  MEOH      DO1             8.1957659289       20.6371809049       27.0553988737  MEOH      704             0.0000000000
     21508      1396  MEOH      HO1             8.1260326485       20.4495137782       26.0990865735  MEOH      704             0.0000000000
     21509      1396  MEOH      HO2             8.2048968003       21.5534002405       27.3664837774  MEOH      704             0.0000000000
     21510      1396  MEOH      H1A             7.1554130019       20.1149552263       28.7771990314  MEOH      704             0.0000000000
     21511      1396  MEOH      H1B             7.0126878133       18.9400996696       27.4083906930  MEOH      704             0.0000000000
     21512      1396  MEOH      H1C             6.1239573990       20.5116819166       27.3490998028  MEOH      704             0.0000000000
     21513      1396  MEOH      LP1A            8.1126640139       20.9661377703       26.9589166893  MEOH      704             0.0000000000
     21514      1396  MEOH      LP1B            8.4623344426       20.4155874884       27.0436166195  MEOH      704             0.0000000000
     21515      1397  MEOH      C1             13.6745176905       -3.8529134779       32.5232374030  MEOH      705             0.0000000000
     21516      1397  MEOH      DC1            13.6632384542       -3.8492943714       32.5133192820  MEOH      705             0.0000000000
     21517      1397  MEOH      O1             13.4397107608       -4.4318939209       31.2394637590  MEOH      705             0.0000000000
     21518      1397  MEOH      DO1            13.4261288826       -4.4260262570       31.2360265961  MEOH      705             0.0000000000
     21519      1397  MEOH      HO1            14.1994697095       -4.1865698034       30.6885713764  MEOH      705             0.0000000000
     21520      1397  MEOH      HO2            13.2785852692       -5.3733947563       31.4083268793  MEOH      705             0.0000000000
     21521      1397  MEOH      H1A            12.8578129473       -4.1408122403       33.2192465019  MEOH      705             0.0000000000
     21522      1397  MEOH      H1B            13.7126528988       -2.7455728393       32.4416076532  MEOH      705             0.0000000000
     21523      1397  MEOH      H1C            14.6362709121       -4.2219359793       32.9393793690  MEOH      705             0.0000000000
     21524      1397  MEOH      LP1A           13.5718219488       -4.7558090146       31.2282545625  MEOH      705             0.0000000000
     21525      1397  MEOH      LP1B           13.2583117478       -4.2094447266       31.0391870654  MEOH      705             0.0000000000
     21526      1398  MEOH      C1            -17.8717887549       11.9821679970      -33.2830404701  MEOH      706             0.0000000000
     21527      1398  MEOH      DC1           -17.8676585886       12.0111323855      -33.2736432180  MEOH      706             0.0000000000
     21528      1398  MEOH      O1            -18.6439416121       13.1151260139      -32.8800253057  MEOH      706             0.0000000000
     21529      1398  MEOH      DO1           -18.6456506890       13.1391466724      -32.8736840818  MEOH      706             0.0000000000
     21530      1398  MEOH      HO1           -19.5575344205       12.8476568739      -33.0663273191  MEOH      706             0.0000000000
     21531      1398  MEOH      HO2           -18.3687241310       13.3082010619      -31.9701476415  MEOH      706             0.0000000000
     21532      1398  MEOH      H1A           -16.7849248564       12.1770303035      -33.1602538671  MEOH      706             0.0000000000
     21533      1398  MEOH      H1B           -18.0853282762       11.7421099699      -34.3465695092  MEOH      706             0.0000000000
     21534      1398  MEOH      H1C           -18.1475244276       11.0993543839      -32.6674667838  MEOH      706             0.0000000000
     21535      1398  MEOH      LP1A          -18.7290250852       13.0877581583      -32.5416293792  MEOH      706             0.0000000000
     21536      1398  MEOH      LP1B          -18.6785984608       13.3377693936      -33.1478476877  MEOH      706             0.0000000000
     21537      1399  MEOH      C1             -0.5761353197       28.2925041247       -4.3767187020  MEOH      707             0.0000000000
     21538      1399  MEOH      DC1            -0.5776103250       28.2961760441       -4.3610310063  MEOH      707             0.0000000000
     21539      1399  MEOH      O1              0.5733311987       28.0744588207       -3.5617197427  MEOH      707             0.0000000000
     21540      1399  MEOH      DO1             0.5656953397       28.0574536020       -3.5494744509  MEOH      707             0.0000000000
     21541      1399  MEOH      HO1             1.2937653378       27.8827982790       -4.1823169454  MEOH      707             0.0000000000
     21542      1399  MEOH      HO2             0.6534584277       28.8766209590       -3.0222611876  MEOH      707             0.0000000000
     21543      1399  MEOH      H1A            -1.4179617918       28.6602531625       -3.7518908564  MEOH      707             0.0000000000
     21544      1399  MEOH      H1B            -0.8721788386       27.3460548302       -4.8776308379  MEOH      707             0.0000000000
     21545      1399  MEOH      H1C            -0.3515497403       29.0533993388       -5.1544852427  MEOH      707             0.0000000000
     21546      1399  MEOH      LP1A            0.7385258289       28.3776079460       -3.5041754814  MEOH      707             0.0000000000
     21547      1399  MEOH      LP1B            0.5948310268       27.7365698568       -3.4730134551  MEOH      707             0.0000000000
     21548      1400  MEOH      C1             16.0555485672        5.8847893271        5.1241143180  MEOH      708             0.0000000000
     21549      1400  MEOH      DC1            16.0545254713        5.8999830529        5.1133785981  MEOH      708             0.0000000000
     21550      1400  MEOH      O1             14.9526570885        6.6464399176        4.6317495653  MEOH      708             0.0000000000
     21551      1400  MEOH      DO1            14.9570746604        6.6625371427        4.6268719380  MEOH      708             0.0000000000
     21552      1400  MEOH      HO1            14.3260931762        6.7296423477        5.3675450669  MEOH      708             0.0000000000
     21553      1400  MEOH      HO2            15.3263396233        7.4220861199        4.1849449860  MEOH      708             0.0000000000
     21554      1400  MEOH      H1A            16.7477461674        5.6192288577        4.2966718007  MEOH      708             0.0000000000
     21555      1400  MEOH      H1B            15.6790254496        4.9526582228        5.5970656354  MEOH      708             0.0000000000
     21556      1400  MEOH      H1C            16.6106299541        6.4679759511        5.8896853574  MEOH      708             0.0000000000
     21557      1400  MEOH      LP1A           15.0116257549        6.9879364348        4.6807681859  MEOH      708             0.0000000000
     21558      1400  MEOH      LP1B           14.7138826396        6.4334290097        4.4899288486  MEOH      708             0.0000000000
     21559      1401  MEOH      C1              3.0528499353      -15.6901608913       -0.4154350954  MEOH      709             0.0000000000
     21560      1401  MEOH      DC1             3.0555692287      -15.6860739408       -0.4213171589  MEOH      709             0.0000000000
     21561      1401  MEOH      O1              2.2517272818      -15.7949662726       -1.5956503273  MEOH      709             0.0000000000
     21562      1401  MEOH      DO1             2.2550465295      -15.7900265675       -1.6011508635  MEOH      709             0.0000000000
     21563      1401  MEOH      HO1             1.5181623914      -16.3936355576       -1.3849903197  MEOH      709             0.0000000000
     21564      1401  MEOH      HO2             2.0776907935      -14.8849464844       -1.8828354359  MEOH      709             0.0000000000
     21565      1401  MEOH      H1A             3.9749163344      -15.1113128371       -0.6369062802  MEOH      709             0.0000000000
     21566      1401  MEOH      H1B             3.3420312336      -16.7027562726       -0.0613930472  MEOH      709             0.0000000000
     21567      1401  MEOH      H1C             2.4856419370      -15.1701848867        0.3859518535  MEOH      709             0.0000000000
     21568      1401  MEOH      LP1A            2.0078010250      -15.5439746364       -1.5974335228  MEOH      709             0.0000000000
     21569      1401  MEOH      LP1B            2.3686783515      -16.0563533533       -1.7968945603  MEOH      709             0.0000000000
     21570      1402  MEOH      C1            -28.4283579893       18.6744656100       -0.1046498442  MEOH      710             0.0000000000
     21571      1402  MEOH      DC1           -28.4134723222       18.6900461552       -0.1072490954  MEOH      710             0.0000000000
     21572      1402  MEOH      O1            -27.5216235703       19.6123124897       -0.6786121564  MEOH      710             0.0000000000
     21573      1402  MEOH      DO1           -27.5018719999       19.6181340822       -0.6751144072  MEOH      710             0.0000000000
     21574      1402  MEOH      HO1           -26.6403610862       19.2165567390       -0.5911260439  MEOH      710             0.0000000000
     21575      1402  MEOH      HO2           -27.8706492605       19.8009533028       -1.5637650877  MEOH      710             0.0000000000
     21576      1402  MEOH      H1A           -29.4782410344       18.9753749466       -0.3084148149  MEOH      710             0.0000000000
     21577      1402  MEOH      H1B           -28.2607610605       18.5977727501        0.9909552282  MEOH      710             0.0000000000
     21578      1402  MEOH      H1C           -28.2562377674       17.6579898390       -0.5187423921  MEOH      710             0.0000000000
     21579      1402  MEOH      LP1A          -27.4857277793       19.5498998901       -1.0211266227  MEOH      710             0.0000000000
     21580      1402  MEOH      LP1B          -27.4139667674       19.8392866207       -0.4349058647  MEOH      710             0.0000000000
     21581      1403  MEOH      C1             24.9573583342       -4.9612968065       24.5038538494  MEOH      711             0.0000000000
     21582      1403  MEOH      DC1            24.9657486581       -4.9788019243       24.5163998392  MEOH      711             0.0000000000
     21583      1403  MEOH      O1             26.2369287147       -5.5485201945       24.2535893485  MEOH      711             0.0000000000
     21584      1403  MEOH      DO1            26.2484354545       -5.5566379575       24.2595647207  MEOH      711             0.0000000000
     21585      1403  MEOH      HO1            26.6959507798       -5.5990239377       25.1066122765  MEOH      711             0.0000000000
     21586      1403  MEOH      HO2            26.0684643583       -6.3464750454       23.7284343064  MEOH      711             0.0000000000
     21587      1403  MEOH      H1A            24.4297251243       -4.7747847917       23.5440947827  MEOH      711             0.0000000000
     21588      1403  MEOH      H1B            25.0824789120       -3.9870356374       25.0229694589  MEOH      711             0.0000000000
     21589      1403  MEOH      H1C            24.3382994845       -5.6403976121       25.1282809760  MEOH      711             0.0000000000
     21590      1403  MEOH      LP1A           26.2155117820       -5.8970217715       24.2778373555  MEOH      711             0.0000000000
     21591      1403  MEOH      LP1B           26.4700271229       -5.2991450493       24.1762771955  MEOH      711             0.0000000000
     21592      1404  MEOH      C1            -12.1251431236      -19.3762918337       13.0012605835  MEOH      712             0.0000000000
     21593      1404  MEOH      DC1           -12.1178322686      -19.3653234718       12.9839709831  MEOH      712             0.0000000000
     21594      1404  MEOH      O1            -11.6452603420      -18.4710075071       12.0033791530  MEOH      712             0.0000000000
     21595      1404  MEOH      DO1           -11.6489233346      -18.4637209504       11.9800623678  MEOH      712             0.0000000000
     21596      1404  MEOH      HO1           -12.2300848370      -18.5851787062       11.2379738695  MEOH      712             0.0000000000
     21597      1404  MEOH      HO2           -11.5655706288      -17.6110883898       12.4450675740  MEOH      712             0.0000000000
     21598      1404  MEOH      H1A           -11.4533807103      -19.3613378047       13.8860388825  MEOH      712             0.0000000000
     21599      1404  MEOH      H1B           -12.1566978315      -20.4102986006       12.5960997428  MEOH      712             0.0000000000
     21600      1404  MEOH      H1C           -13.1462450193      -19.0854638629       13.3285082115  MEOH      712             0.0000000000
     21601      1404  MEOH      LP1A          -11.7997909688      -18.1591588961       12.0404025125  MEOH      712             0.0000000000
     21602      1404  MEOH      LP1B          -11.4021076379      -18.6278439228       11.8064550528  MEOH      712             0.0000000000
     21603      1405  MEOH      C1             14.0699974932        8.2838835797      -26.8794343511  MEOH      713             0.0000000000
     21604      1405  MEOH      DC1            14.0585747750        8.2917559554      -26.8815112731  MEOH      713             0.0000000000
     21605      1405  MEOH      O1             13.8243154657        7.0937319425      -27.6381300382  MEOH      713             0.0000000000
     21606      1405  MEOH      DO1            13.8023775984        7.0963999311      -27.6342277015  MEOH      713             0.0000000000
     21607      1405  MEOH      HO1            13.9644315587        7.3102696181      -28.5732123424  MEOH      713             0.0000000000
     21608      1405  MEOH      HO2            14.3816360252        6.4115890592      -27.2319590374  MEOH      713             0.0000000000
     21609      1405  MEOH      H1A            13.9151713635        8.0774469909      -25.7988170249  MEOH      713             0.0000000000
     21610      1405  MEOH      H1B            13.3675933160        9.0860599296      -27.1916241587  MEOH      713             0.0000000000
     21611      1405  MEOH      H1C            15.1164605242        8.6256964877      -27.0291008489  MEOH      713             0.0000000000
     21612      1405  MEOH      LP1A           14.1194572963        6.9080750390      -27.6685078922  MEOH      713             0.0000000000
     21613      1405  MEOH      LP1B           13.4857582670        7.0748079038      -27.7248531838  MEOH      713             0.0000000000
     21614      1406  MEOH      C1             25.4193140027      -18.9341315369      -29.1313897934  MEOH      714             0.0000000000
     21615      1406  MEOH      DC1            25.4134462739      -18.9190146108      -29.1369225910  MEOH      714             0.0000000000
     21616      1406  MEOH      O1             24.1517584655      -18.5234648243      -29.6479801470  MEOH      714             0.0000000000
     21617      1406  MEOH      DO1            24.1481653060      -18.5086613002      -29.6499801960  MEOH      714             0.0000000000
     21618      1406  MEOH      HO1            24.2512106390      -17.6146275255      -29.9720542589  MEOH      714             0.0000000000
     21619      1406  MEOH      HO2            23.8760682546      -19.2254179350      -30.2580266518  MEOH      714             0.0000000000
     21620      1406  MEOH      H1A            25.3400111672      -19.9654378171      -28.7258784897  MEOH      714             0.0000000000
     21621      1406  MEOH      H1B            25.7444330633      -18.2526785053      -28.3163803688  MEOH      714             0.0000000000
     21622      1406  MEOH      H1C            26.1774709621      -18.9331915791      -29.9434970170  MEOH      714             0.0000000000
     21623      1406  MEOH      LP1A           24.1270014789      -18.6090795878      -29.9864431493  MEOH      714             0.0000000000
     21624      1406  MEOH      LP1B           23.9597335174      -18.3792879911      -29.3933442107  MEOH      714             0.0000000000
     21625      1407  MEOH      C1            -34.7225136820       27.8861034623       -1.1794951107  MEOH      715             0.0000000000
     21626      1407  MEOH      DC1           -34.7276662471       27.8907127835       -1.1752846867  MEOH      715             0.0000000000
     21627      1407  MEOH      O1            -33.3105092406       27.6644411302       -1.2336158915  MEOH      715             0.0000000000
     21628      1407  MEOH      DO1           -33.3174302218       27.6673672309       -1.2212165174  MEOH      715             0.0000000000
     21629      1407  MEOH      HO1           -32.9063477591       28.3553775741       -1.7814847891  MEOH      715             0.0000000000
     21630      1407  MEOH      HO2           -33.0198721810       27.5135068615       -0.3205721105  MEOH      715             0.0000000000
     21631      1407  MEOH      H1A           -35.2113776077       27.0110474875       -0.7003186256  MEOH      715             0.0000000000
     21632      1407  MEOH      H1B           -35.1332830962       28.0034513883       -2.2050773612  MEOH      715             0.0000000000
     21633      1407  MEOH      H1C           -34.9438206142       28.7972632280       -0.5835654797  MEOH      715             0.0000000000
     21634      1407  MEOH      LP1A          -33.1531629815       27.8294833943       -0.9680914938  MEOH      715             0.0000000000
     21635      1407  MEOH      LP1B          -33.2327016923       27.4530520224       -1.5014976388  MEOH      715             0.0000000000
     21636      1408  MEOH      C1             -3.0663380750       -0.9700662855        8.2775568375  MEOH      716             0.0000000000
     21637      1408  MEOH      DC1            -3.0592920618       -0.9767660607        8.2930679348  MEOH      716             0.0000000000
     21638      1408  MEOH      O1             -3.5851222878       -0.4428647589        7.0555487261  MEOH      716             0.0000000000
     21639      1408  MEOH      DO1            -3.5729170694       -0.4483549332        7.0574739107  MEOH      716             0.0000000000
     21640      1408  MEOH      HO1            -4.5417077629       -0.6027984696        7.0392564905  MEOH      716             0.0000000000
     21641      1408  MEOH      HO2            -3.2518594120        0.4668309496        7.0076992244  MEOH      716             0.0000000000
     21642      1408  MEOH      H1A            -1.9629272059       -0.8414853126        8.2940610027  MEOH      716             0.0000000000
     21643      1408  MEOH      H1B            -3.3077844991       -2.0514560615        8.3589250058  MEOH      716             0.0000000000
     21644      1408  MEOH      H1C            -3.5096967539       -0.4223095213        9.1364611451  MEOH      716             0.0000000000
     21645      1408  MEOH      LP1A           -3.6742866143       -0.1071262741        7.0983201272  MEOH      716             0.0000000000
     21646      1408  MEOH      LP1B           -3.5723631486       -0.6868583473        6.8049407989  MEOH      716             0.0000000000
     21647      1409  MEOH      C1             -4.9369619842       19.1968599597      -30.1068187203  MEOH      717             0.0000000000
     21648      1409  MEOH      DC1            -4.9614565581       19.2126677839      -30.1030728333  MEOH      717             0.0000000000
     21649      1409  MEOH      O1             -3.8405430700       19.5618245807      -29.2806009568  MEOH      717             0.0000000000
     21650      1409  MEOH      DO1            -3.8571976464       19.5776055093      -29.2848780018  MEOH      717             0.0000000000
     21651      1409  MEOH      HO1            -4.1182824976       20.2359767079      -28.6408512233  MEOH      717             0.0000000000
     21652      1409  MEOH      HO2            -3.4778886377       18.7228967825      -28.9556672527  MEOH      717             0.0000000000
     21653      1409  MEOH      H1A            -4.6220766039       18.3630401863      -30.7700779340  MEOH      717             0.0000000000
     21654      1409  MEOH      H1B            -5.2430724449       20.0589849153      -30.7371820658  MEOH      717             0.0000000000
     21655      1409  MEOH      H1C            -5.7837330400       18.8333272847      -29.4862191931  MEOH      717             0.0000000000
     21656      1409  MEOH      LP1A           -3.8269265840       19.3525321779      -29.0004023105  MEOH      717             0.0000000000
     21657      1409  MEOH      LP1B           -3.6626610016       19.8252092626      -29.4271836266  MEOH      717             0.0000000000
     21658      1410  MEOH      C1             -5.8836494940      -32.4935125227       -0.9010478290  MEOH      718             0.0000000000
     21659      1410  MEOH      DC1            -5.8946174386      -32.4822340976       -0.9021325874  MEOH      718             0.0000000000
     21660      1410  MEOH      O1             -6.2502330833      -33.5788109546       -0.0499154376  MEOH      718             0.0000000000
     21661      1410  MEOH      DO1            -6.2573984942      -33.5783709057       -0.0459965723  MEOH      718             0.0000000000
     21662      1410  MEOH      HO1            -6.7763810907      -34.1839392307       -0.5957066466  MEOH      718             0.0000000000
     21663      1410  MEOH      HO2            -5.4128007081      -33.8934840568        0.3250350357  MEOH      718             0.0000000000
     21664      1410  MEOH      H1A            -5.1886315400      -31.8178534883       -0.3581335511  MEOH      718             0.0000000000
     21665      1410  MEOH      H1B            -6.7920506580      -31.9365611295       -1.2155847440  MEOH      718             0.0000000000
     21666      1410  MEOH      H1C            -5.3567393602      -32.8782862208       -1.8002896838  MEOH      718             0.0000000000
     21667      1410  MEOH      LP1A           -6.0042978962      -33.8276145627       -0.0605290303  MEOH      718             0.0000000000
     21668      1410  MEOH      LP1B           -6.5520374575      -33.5071492294        0.1121916777  MEOH      718             0.0000000000
     21669      1411  MEOH      C1             16.4113710608       25.6837328141       13.0083861604  MEOH      719             0.0000000000
     21670      1411  MEOH      DC1            16.4290901196       25.6769133410       13.0026946087  MEOH      719             0.0000000000
     21671      1411  MEOH      O1             15.8851520317       26.6431007536       13.9261253539  MEOH      719             0.0000000000
     21672      1411  MEOH      DO1            15.9095449054       26.6418771681       13.9156850931  MEOH      719             0.0000000000
     21673      1411  MEOH      HO1            15.1659810526       27.1253180467       13.4889073477  MEOH      719             0.0000000000
     21674      1411  MEOH      HO2            15.6616687475       26.1342034239       14.7210962530  MEOH      719             0.0000000000
     21675      1411  MEOH      H1A            17.1993211574       25.0877660343       13.5165979691  MEOH      719             0.0000000000
     21676      1411  MEOH      H1B            16.8406491483       26.1998698781       12.1231495501  MEOH      719             0.0000000000
     21677      1411  MEOH      H1C            15.6059963276       24.9944056777       12.6759397156  MEOH      719             0.0000000000
     21678      1411  MEOH      LP1A           15.6290338910       26.4989786104       14.1162103503  MEOH      719             0.0000000000
     21679      1411  MEOH      LP1B           16.0606130800       26.9446172152       13.8978191019  MEOH      719             0.0000000000
     21680      1412  MEOH      C1            -28.8559238691        1.9253419179      -13.1533947618  MEOH      720             0.0000000000
     21681      1412  MEOH      DC1           -28.8541854857        1.9277640712      -13.1472397483  MEOH      720             0.0000000000
     21682      1412  MEOH      O1            -29.3594990675        3.1245080172      -12.5611623237  MEOH      720             0.0000000000
     21683      1412  MEOH      DO1           -29.3583520411        3.1246237502      -12.5568378664  MEOH      720             0.0000000000
     21684      1412  MEOH      HO1           -29.9658321737        3.5266282313      -13.2026913554  MEOH      720             0.0000000000
     21685      1412  MEOH      HO2           -29.6786990056        2.8720191494      -11.6806733850  MEOH      720             0.0000000000
     21686      1412  MEOH      H1A           -28.0867768254        1.4775645593      -12.4883915571  MEOH      720             0.0000000000
     21687      1412  MEOH      H1B           -28.3950894976        2.1479290849      -14.1395020765  MEOH      720             0.0000000000
     21688      1412  MEOH      H1C           -29.6796248765        1.1931643697      -13.2939425787  MEOH      720             0.0000000000
     21689      1412  MEOH      LP1A          -29.6485906328        3.0546425303      -12.3766497751  MEOH      720             0.0000000000
     21690      1412  MEOH      LP1B          -29.1485070297        3.3932515519      -12.6370521948  MEOH      720             0.0000000000
     21691      1413  MEOH      C1            -30.5062717348       16.6873563681       26.8644532185  MEOH      721             0.0000000000
     21692      1413  MEOH      DC1           -30.5145409595       16.6938777923       26.8752881189  MEOH      721             0.0000000000
     21693      1413  MEOH      O1            -29.2101413096       16.5540693975       27.4526266611  MEOH      721             0.0000000000
     21694      1413  MEOH      DO1           -29.2179232044       16.5641454883       27.4583980642  MEOH      721             0.0000000000
     21695      1413  MEOH      HO1           -28.9473771357       15.6244440648       27.3651524855  MEOH      721             0.0000000000
     21696      1413  MEOH      HO2           -28.6641525114       17.2347824453       27.0290396230  MEOH      721             0.0000000000
     21697      1413  MEOH      H1A           -30.8384772483       17.7453695021       26.9320454209  MEOH      721             0.0000000000
     21698      1413  MEOH      H1B           -31.2348473482       16.0368905153       27.3939744645  MEOH      721             0.0000000000
     21699      1413  MEOH      H1C           -30.4665649376       16.3945135590       25.7934782136  MEOH      721             0.0000000000
     21700      1413  MEOH      LP1A          -28.9628858567       16.6150626478       27.2125338365  MEOH      721             0.0000000000
     21701      1413  MEOH      LP1B          -29.2403400620       16.4819454417       27.7937808350  MEOH      721             0.0000000000
     21702      1414  MEOH      C1            -11.0769743157      -36.5000383800       27.8087277119  MEOH      722             0.0000000000
     21703      1414  MEOH      DC1           -11.0779712589      -36.5186111267       27.8052992586  MEOH      722             0.0000000000
     21704      1414  MEOH      O1            -10.5274377567      -36.5455086374       29.1242493576  MEOH      722             0.0000000000
     21705      1414  MEOH      DO1           -10.5179673627      -36.5541577251       29.1177090926  MEOH      722             0.0000000000
     21706      1414  MEOH      HO1           -11.2636750483      -36.4117769682       29.7414774293  MEOH      722             0.0000000000
     21707      1414  MEOH      HO2           -10.0092779659      -37.3643537184       29.1678746321  MEOH      722             0.0000000000
     21708      1414  MEOH      H1A           -10.2426623943      -36.5748969648       27.0789052609  MEOH      722             0.0000000000
     21709      1414  MEOH      H1B           -11.6064757419      -35.5401566040       27.6282388835  MEOH      722             0.0000000000
     21710      1414  MEOH      H1C           -11.7910238089      -37.3377401582       27.6580291628  MEOH      722             0.0000000000
     21711      1414  MEOH      LP1A          -10.5267572712      -36.8749715892       29.2423751395  MEOH      722             0.0000000000
     21712      1414  MEOH      LP1B          -10.4254370318      -36.2254422781       29.2225009619  MEOH      722             0.0000000000
     21713      1415  MEOH      C1            -10.7581484983       34.8208538693      -32.7233481968  MEOH      723             0.0000000000
     21714      1415  MEOH      DC1           -10.7536291860       34.8211979710      -32.7127790855  MEOH      723             0.0000000000
     21715      1415  MEOH      O1            -10.4359096622       34.3136371693      -31.4286584570  MEOH      723             0.0000000000
     21716      1415  MEOH      DO1           -10.4345029544       34.3055135852      -31.4303796469  MEOH      723             0.0000000000
     21717      1415  MEOH      HO1           -10.8224334238       33.4276383563      -31.3480018638  MEOH      723             0.0000000000
     21718      1415  MEOH      HO2            -9.4826077109       34.4540175267      -31.3172639111  MEOH      723             0.0000000000
     21719      1415  MEOH      H1A           -10.4517981999       35.8869706325      -32.7855216833  MEOH      723             0.0000000000
     21720      1415  MEOH      H1B           -11.8524923339       34.7596815611      -32.9049811181  MEOH      723             0.0000000000
     21721      1415  MEOH      H1C           -10.2252996716       34.2415044097      -33.5074064424  MEOH      723             0.0000000000
     21722      1415  MEOH      LP1A          -10.1297064934       34.1444366350      -31.4391845504  MEOH      723             0.0000000000
     21723      1415  MEOH      LP1B          -10.6824058542       34.4074594903      -31.1985780376  MEOH      723             0.0000000000
     21724      1416  MEOH      C1              0.7919522779       23.1820526235       20.7822078660  MEOH      724             0.0000000000
     21725      1416  MEOH      DC1             0.7992239209       23.1869641992       20.7806957213  MEOH      724             0.0000000000
     21726      1416  MEOH      O1              0.9675046033       23.0931308253       22.1978390684  MEOH      724             0.0000000000
     21727      1416  MEOH      DO1             0.9689340245       23.1009499815       22.2027769418  MEOH      724             0.0000000000
     21728      1416  MEOH      HO1             1.6192948370       23.7654306823       22.4509840756  MEOH      724             0.0000000000
     21729      1416  MEOH      HO2             0.0737356959       23.0954238208       22.5747633079  MEOH      724             0.0000000000
     21730      1416  MEOH      H1A             0.1869524672       22.3210412909       20.4258994090  MEOH      724             0.0000000000
     21731      1416  MEOH      H1B             1.7752469282       23.1636720308       20.2653763798  MEOH      724             0.0000000000
     21732      1416  MEOH      H1C             0.2555393510       24.1208450464       20.5267651941  MEOH      724             0.0000000000
     21733      1416  MEOH      LP1A            0.7363097162       23.2996320042       22.3603388755  MEOH      724             0.0000000000
     21734      1416  MEOH      LP1B            1.2204656646       22.8631762744       22.2728830956  MEOH      724             0.0000000000
     21735      1417  MEOH      C1            -34.4204260232        4.6195111881       -6.3796502141  MEOH      725             0.0000000000
     21736      1417  MEOH      DC1           -34.4262820572        4.6156426803       -6.3810761917  MEOH      725             0.0000000000
     21737      1417  MEOH      O1            -35.4824044614        5.5613794929       -6.5418952521  MEOH      725             0.0000000000
     21738      1417  MEOH      DO1           -35.4846506103        5.5609968179       -6.5488354042  MEOH      725             0.0000000000
     21739      1417  MEOH      HO1           -35.2315335439        6.3520272384       -6.0390633450  MEOH      725             0.0000000000
     21740      1417  MEOH      HO2           -35.6441904693        5.6178593955       -7.4966388346  MEOH      725             0.0000000000
     21741      1417  MEOH      H1A           -34.6864929220        3.6602179533       -6.8728904143  MEOH      725             0.0000000000
     21742      1417  MEOH      H1B           -34.2358530734        4.4292951176       -5.3007286810  MEOH      725             0.0000000000
     21743      1417  MEOH      H1C           -33.4918168143        5.0192034448       -6.8403584053  MEOH      725             0.0000000000
     21744      1417  MEOH      LP1A          -35.4251542681        5.7587050446       -6.8252414044  MEOH      725             0.0000000000
     21745      1417  MEOH      LP1B          -35.7232609865        5.5143801739       -6.2923372462  MEOH      725             0.0000000000
     21746      1418  MEOH      C1              0.5934888481       19.4400507949       -2.6453807365  MEOH      726             0.0000000000
     21747      1418  MEOH      DC1             0.6017635646       19.4458259292       -2.6371819254  MEOH      726             0.0000000000
     21748      1418  MEOH      O1             -0.7235976051       19.0931239437       -3.0792796487  MEOH      726             0.0000000000
     21749      1418  MEOH      DO1            -0.7152424887       19.0968136638       -3.0668948038  MEOH      726             0.0000000000
     21750      1418  MEOH      HO1            -1.1541703856       18.5550192852       -2.3966740106  MEOH      726             0.0000000000
     21751      1418  MEOH      HO2            -1.1333912422       19.9152268058       -3.3909141473  MEOH      726             0.0000000000
     21752      1418  MEOH      H1A             1.1307741969       19.9434410989       -3.4773925501  MEOH      726             0.0000000000
     21753      1418  MEOH      H1B             1.1658791146       18.5277827436       -2.3725119292  MEOH      726             0.0000000000
     21754      1418  MEOH      H1C             0.5387072243       20.1233434704       -1.7710632351  MEOH      726             0.0000000000
     21755      1418  MEOH      LP1A           -0.9512011245       19.3397710764       -2.9799729023  MEOH      726             0.0000000000
     21756      1418  MEOH      LP1B           -0.7148876600       18.7941437133       -3.2610348650  MEOH      726             0.0000000000
     21757      1419  MEOH      C1              8.6166396340       -6.5258133202       11.8716830691  MEOH      727             0.0000000000
     21758      1419  MEOH      DC1             8.6298240070       -6.5087735906       11.8532503525  MEOH      727             0.0000000000
     21759      1419  MEOH      O1              8.6128148986       -5.0946948203       11.8710837808  MEOH      727             0.0000000000
     21760      1419  MEOH      DO1             8.6198065931       -5.0779337029       11.8631979512  MEOH      727             0.0000000000
     21761      1419  MEOH      HO1             9.3049562172       -4.7958889576       11.2607105740  MEOH      727             0.0000000000
     21762      1419  MEOH      HO2             7.6861911549       -4.8290885591       11.7628167379  MEOH      727             0.0000000000
     21763      1419  MEOH      H1A             7.9002369035       -6.8948502257       12.6364705507  MEOH      727             0.0000000000
     21764      1419  MEOH      H1B             9.6193778293       -6.9164327551       12.1478235578  MEOH      727             0.0000000000
     21765      1419  MEOH      H1C             8.3056528986       -6.9240919997       10.8822477029  MEOH      727             0.0000000000
     21766      1419  MEOH      LP1A            8.3908528993       -4.9756823113       11.6280428510  MEOH      727             0.0000000000
     21767      1419  MEOH      LP1B            8.8255218001       -4.9743139525       12.1216116649  MEOH      727             0.0000000000
     21768      1420  MEOH      C1            -25.5131288867       16.5718566131       -6.9029169503  MEOH      728             0.0000000000
     21769      1420  MEOH      DC1           -25.5110794155       16.5799053231       -6.9053848312  MEOH      728             0.0000000000
     21770      1420  MEOH      O1            -26.4935794157       16.9778999508       -7.8611234380  MEOH      728             0.0000000000
     21771      1420  MEOH      DO1           -26.4939739585       16.9873131228       -7.8600008404  MEOH      728             0.0000000000
     21772      1420  MEOH      HO1           -27.1680324216       17.5066665831       -7.4067898697  MEOH      728             0.0000000000
     21773      1420  MEOH      HO2           -26.0087999177       17.3082126716       -8.6336403280  MEOH      728             0.0000000000
     21774      1420  MEOH      H1A           -24.7866519686       15.8651157409       -7.3579659883  MEOH      728             0.0000000000
     21775      1420  MEOH      H1B           -26.0020815294       16.0233493713       -6.0696186121  MEOH      728             0.0000000000
     21776      1420  MEOH      H1C           -24.9664498473       17.4623389498       -6.5254196173  MEOH      728             0.0000000000
     21777      1420  MEOH      LP1A          -26.3999463682       17.2821378216       -8.0066300372  MEOH      728             0.0000000000
     21778      1420  MEOH      LP1B          -26.7456047828       16.7361450677       -7.8843137549  MEOH      728             0.0000000000
     21779      1421  MEOH      C1             -5.6250500525       28.8213216405      -24.4136106226  MEOH      729             0.0000000000
     21780      1421  MEOH      DC1            -5.6316788609       28.8073040917      -24.4110594756  MEOH      729             0.0000000000
     21781      1421  MEOH      O1             -5.0076599224       29.7835669292      -25.2644672713  MEOH      729             0.0000000000
     21782      1421  MEOH      DO1            -5.0014635381       29.7774948765      -25.2605362141  MEOH      729             0.0000000000
     21783      1421  MEOH      HO1            -5.6437785634       30.5099828513      -25.3570576808  MEOH      729             0.0000000000
     21784      1421  MEOH      HO2            -4.1252222023       29.9364241516      -24.8918571001  MEOH      729             0.0000000000
     21785      1421  MEOH      H1A            -4.9869827631       27.9130566996      -24.3662193425  MEOH      729             0.0000000000
     21786      1421  MEOH      H1B            -6.6229956016       28.5421342910      -24.8142103049  MEOH      729             0.0000000000
     21787      1421  MEOH      H1C            -5.7488144779       29.2492858589      -23.3958434612  MEOH      729             0.0000000000
     21788      1421  MEOH      LP1A           -4.8201426825       30.0092547532      -25.0736734275  MEOH      729             0.0000000000
     21789      1421  MEOH      LP1B           -5.0821792849       29.7128257106      -25.5990454304  MEOH      729             0.0000000000
     21790      1422  MEOH      C1             22.1955416070        8.7581101581       23.0702226402  MEOH      730             0.0000000000
     21791      1422  MEOH      DC1            22.2003702771        8.7754576122       23.0692510435  MEOH      730             0.0000000000
     21792      1422  MEOH      O1             21.3409352063        7.8946825698       23.8237318082  MEOH      730             0.0000000000
     21793      1422  MEOH      DO1            21.3394035789        7.9065755098       23.8272240613  MEOH      730             0.0000000000
     21794      1422  MEOH      HO1            21.3594551370        7.0363921321       23.3721849815  MEOH      730             0.0000000000
     21795      1422  MEOH      HO2            21.6469670177        7.9543757364       24.7422530420  MEOH      730             0.0000000000
     21796      1422  MEOH      H1A            22.1992628980        9.7735776864       23.5209252617  MEOH      730             0.0000000000
     21797      1422  MEOH      H1B            21.8197665467        8.8402080186       22.0279299529  MEOH      730             0.0000000000
     21798      1422  MEOH      H1C            23.2299434616        8.3527656865       23.0647762986  MEOH      730             0.0000000000
     21799      1422  MEOH      LP1A           21.5241540319        7.7348530180       24.0754963338  MEOH      730             0.0000000000
     21800      1422  MEOH      LP1B           21.0123802708        7.9184799256       23.7054721777  MEOH      730             0.0000000000
     21801      1423  MEOH      C1            -26.8450054051       36.1437606306       30.3864924691  MEOH      731             0.0000000000
     21802      1423  MEOH      DC1           -26.8413237187       36.1489547753       30.3882337155  MEOH      731             0.0000000000
     21803      1423  MEOH      O1            -25.9649773370       37.0632858142       29.7465177593  MEOH      731             0.0000000000
     21804      1423  MEOH      DO1           -25.9573740196       37.0778422028       29.7456257798  MEOH      731             0.0000000000
     21805      1423  MEOH      HO1           -25.1470550734       36.5733428252       29.5680267560  MEOH      731             0.0000000000
     21806      1423  MEOH      HO2           -26.4598018799       37.4275508338       28.9959448662  MEOH      731             0.0000000000
     21807      1423  MEOH      H1A           -27.8210072232       36.6496143675       30.5472825452  MEOH      731             0.0000000000
     21808      1423  MEOH      H1B           -26.4103789132       35.8520472722       31.3664537587  MEOH      731             0.0000000000
     21809      1423  MEOH      H1C           -27.0029502647       35.2350739355       29.7670871786  MEOH      731             0.0000000000
     21810      1423  MEOH      LP1A          -26.0133640834       37.0538896796       29.4000059479  MEOH      731             0.0000000000
     21811      1423  MEOH      LP1B          -25.7767251305       37.2353884728       29.9861879110  MEOH      731             0.0000000000
     21812      1424  MEOH      C1              5.6891604508      -31.9172092116        9.3015225828  MEOH      732             0.0000000000
     21813      1424  MEOH      DC1             5.6971512722      -31.9013116120        9.3088422495  MEOH      732             0.0000000000
     21814      1424  MEOH      O1              4.8473228222      -30.8568440586        9.7599302724  MEOH      732             0.0000000000
     21815      1424  MEOH      DO1             4.8495016480      -30.8508255007        9.7789424731  MEOH      732             0.0000000000
     21816      1424  MEOH      HO1             4.7577446306      -30.2500747763        9.0084605221  MEOH      732             0.0000000000
     21817      1424  MEOH      HO2             4.0505345015      -31.2992579733       10.0920421523  MEOH      732             0.0000000000
     21818      1424  MEOH      H1A             5.8227208312      -32.6787330041       10.0993722794  MEOH      732             0.0000000000
     21819      1424  MEOH      H1B             6.6842698299      -31.5212165638        9.0061107541  MEOH      732             0.0000000000
     21820      1424  MEOH      H1C             5.2074657400      -32.4142204354        8.4324592654  MEOH      732             0.0000000000
     21821      1424  MEOH      LP1A            4.5116393982      -30.9365162182        9.7010321756  MEOH      732             0.0000000000
     21822      1424  MEOH      LP1B            5.0412105316      -30.6046394806        9.9058768621  MEOH      732             0.0000000000
     21823      1425  MEOH      C1            -10.2041704954       11.0818287460       26.6580065091  MEOH      733             0.0000000000
     21824      1425  MEOH      DC1           -10.1999663372       11.1015954362       26.6670219245  MEOH      733             0.0000000000
     21825      1425  MEOH      O1            -10.2381455386        9.7741420802       26.0764338724  MEOH      733             0.0000000000
     21826      1425  MEOH      DO1           -10.2297315987        9.7934392198       26.0795524438  MEOH      733             0.0000000000
     21827      1425  MEOH      HO1           -10.9112649877        9.2366191689       26.5223927585  MEOH      733             0.0000000000
     21828      1425  MEOH      HO2           -10.2906680602        9.9081338324       25.1171697820  MEOH      733             0.0000000000
     21829      1425  MEOH      H1A            -9.3925451804       11.6737364870       26.1834218735  MEOH      733             0.0000000000
     21830      1425  MEOH      H1B           -10.0105999908       11.0132338847       27.7498609890  MEOH      733             0.0000000000
     21831      1425  MEOH      H1C           -11.1564226985       11.6228951425       26.4715020952  MEOH      733             0.0000000000
     21832      1425  MEOH      LP1A          -10.4620209562        9.7685330404       25.8074574123  MEOH      733             0.0000000000
     21833      1425  MEOH      LP1B          -10.0115914517        9.5640713353       26.2408830374  MEOH      733             0.0000000000
     21834      1426  MEOH      C1             20.8558193531      -15.4882925056       28.5898421293  MEOH      734             0.0000000000
     21835      1426  MEOH      DC1            20.8731695688      -15.4854503338       28.5913647341  MEOH      734             0.0000000000
     21836      1426  MEOH      O1             20.7765264284      -16.8491465130       29.0199026066  MEOH      734             0.0000000000
     21837      1426  MEOH      DO1            20.7920262835      -16.8436419196       29.0217344861  MEOH      734             0.0000000000
     21838      1426  MEOH      HO1            20.3511340727      -17.3663087351       28.3181301508  MEOH      734             0.0000000000
     21839      1426  MEOH      HO2            21.6505565274      -17.0840205680       29.3689091470  MEOH      734             0.0000000000
     21840      1426  MEOH      H1A            21.0534391306      -14.8306669932       29.4632241250  MEOH      734             0.0000000000
     21841      1426  MEOH      H1B            19.8982542843      -15.1827637867       28.1165110175  MEOH      734             0.0000000000
     21842      1426  MEOH      H1C            21.6697653301      -15.3632038106       27.8440769083  MEOH      734             0.0000000000
     21843      1426  MEOH      LP1A           21.0665855715      -17.0213056244       28.9264845470  MEOH      734             0.0000000000
     21844      1426  MEOH      LP1B           20.4782785893      -16.9020923663       29.1952450234  MEOH      734             0.0000000000
     21845      1427  MEOH      C1            -36.3842879868        6.8300442094        9.1027349619  MEOH      735             0.0000000000
     21846      1427  MEOH      DC1           -36.3939438326        6.8213627229        9.0976467009  MEOH      735             0.0000000000
     21847      1427  MEOH      O1            -36.5197732501        6.9531257753        7.6889408735  MEOH      735             0.0000000000
     21848      1427  MEOH      DO1           -36.5279722566        6.9372867510        7.6835713802  MEOH      735             0.0000000000
     21849      1427  MEOH      HO1           -36.5463883142        6.0563638248        7.3201460212  MEOH      735             0.0000000000
     21850      1427  MEOH      HO2           -37.2642608990        7.5569074375        7.5403278025  MEOH      735             0.0000000000
     21851      1427  MEOH      H1A           -36.2428866122        7.8432925419        9.5359259912  MEOH      735             0.0000000000
     21852      1427  MEOH      H1B           -35.5049855745        6.1956793311        9.3450766027  MEOH      735             0.0000000000
     21853      1427  MEOH      H1C           -37.2959135462        6.3746221799        9.5452850894  MEOH      735             0.0000000000
     21854      1427  MEOH      LP1A          -36.8585099782        6.9661036509        7.6018259853  MEOH      735             0.0000000000
     21855      1427  MEOH      LP1B          -36.2038026318        6.9722547584        7.5396202440  MEOH      735             0.0000000000
     21856      1428  MEOH      C1            -10.7312534320        5.6592225587      -32.0372419199  MEOH      736             0.0000000000
     21857      1428  MEOH      DC1           -10.7331938692        5.6670874725      -32.0374393371  MEOH      736             0.0000000000
     21858      1428  MEOH      O1             -9.8334113556        5.4603316024      -33.1306509543  MEOH      736             0.0000000000
     21859      1428  MEOH      DO1            -9.8249516206        5.4754541687      -33.1252662618  MEOH      736             0.0000000000
     21860      1428  MEOH      HO1            -9.5989798901        4.5191401092      -33.1206279220  MEOH      736             0.0000000000
     21861      1428  MEOH      HO2           -10.2864288135        5.8090323920      -33.9142853994  MEOH      736             0.0000000000
     21862      1428  MEOH      H1A           -11.1184091454        6.7003813635      -32.0577308642  MEOH      736             0.0000000000
     21863      1428  MEOH      H1B           -10.2089836697        5.4805065265      -31.0730760228  MEOH      736             0.0000000000
     21864      1428  MEOH      H1C           -11.5855743085        4.9541506468      -32.1228599065  MEOH      736             0.0000000000
     21865      1428  MEOH      LP1A          -10.0133664760        5.3836719681      -33.4208912945  MEOH      736             0.0000000000
     21866      1428  MEOH      LP1B           -9.5037947840        5.5147977885      -33.0263132797  MEOH      736             0.0000000000
     21867      1429  MEOH      C1             15.4273005665       17.4229195354        3.8008472178  MEOH      737             0.0000000000
     21868      1429  MEOH      DC1            15.4378695861       17.4257292427        3.8031996579  MEOH      737             0.0000000000
     21869      1429  MEOH      O1             16.0988422580       18.6729754479        3.6213811755  MEOH      737             0.0000000000
     21870      1429  MEOH      DO1            16.1122998952       18.6741073393        3.6255108257  MEOH      737             0.0000000000
     21871      1429  MEOH      HO1            16.3144829142       18.7445159139        2.6783641719  MEOH      737             0.0000000000
     21872      1429  MEOH      HO2            15.5095980052       19.3335860394        4.0179727257  MEOH      737             0.0000000000
     21873      1429  MEOH      H1A            15.0975911724       17.3139909330        4.8561894727  MEOH      737             0.0000000000
     21874      1429  MEOH      H1B            16.1321416680       16.5902280119        3.5907404592  MEOH      737             0.0000000000
     21875      1429  MEOH      H1C            14.5483658975       17.3419286042        3.1261359335  MEOH      737             0.0000000000
     21876      1429  MEOH      LP1A           15.8656863009       18.9259695609        3.5570983746  MEOH      737             0.0000000000
     21877      1429  MEOH      LP1B           16.4433750724       18.6313865555        3.6668509876  MEOH      737             0.0000000000
     21878      1430  MEOH      C1             25.5916647115       -4.7465439289      -36.1542870162  MEOH      738             0.0000000000
     21879      1430  MEOH      DC1            25.5853531211       -4.7549679143      -36.1348444682  MEOH      738             0.0000000000
     21880      1430  MEOH      O1             24.2432459218       -4.5949191008      -35.7264965974  MEOH      738             0.0000000000
     21881      1430  MEOH      DO1            24.2402607443       -4.5934444482      -35.6955653971  MEOH      738             0.0000000000
     21882      1430  MEOH      HO1            23.7868781119       -4.1874776407      -36.4792381723  MEOH      738             0.0000000000
     21883      1430  MEOH      HO2            23.9905138590       -5.4760173696      -35.4091760231  MEOH      738             0.0000000000
     21884      1430  MEOH      H1A            26.2548556926       -5.0738001383      -35.3251898580  MEOH      738             0.0000000000
     21885      1430  MEOH      H1B            25.9604787322       -3.7650151751      -36.5215723607  MEOH      738             0.0000000000
     21886      1430  MEOH      H1C            25.6343642885       -5.4891441139      -36.9795401358  MEOH      738             0.0000000000
     21887      1430  MEOH      LP1A           24.0600161663       -4.8829192944      -35.8038448050  MEOH      738             0.0000000000
     21888      1430  MEOH      LP1B           24.2022622329       -4.2860685271      -35.5670235264  MEOH      738             0.0000000000
     21889      1431  MEOH      C1            -12.4565883853      -29.8302761530      -27.3349626656  MEOH      739             0.0000000000
     21890      1431  MEOH      DC1           -12.4675011177      -29.8324105664      -27.3377804095  MEOH      739             0.0000000000
     21891      1431  MEOH      O1            -11.3957141626      -30.6522844547      -26.8445696734  MEOH      739             0.0000000000
     21892      1431  MEOH      DO1           -11.4058068702      -30.6642795055      -26.8585533467  MEOH      739             0.0000000000
     21893      1431  MEOH      HO1           -10.6120354126      -30.0831831794      -26.7909846445  MEOH      739             0.0000000000
     21894      1431  MEOH      HO2           -11.7299433779      -31.0451207549      -26.0230646676  MEOH      739             0.0000000000
     21895      1431  MEOH      H1A           -13.4108342646      -30.3992503276      -27.3329150427  MEOH      739             0.0000000000
     21896      1431  MEOH      H1B           -12.2402592918      -29.5021470519      -28.3741229117  MEOH      739             0.0000000000
     21897      1431  MEOH      H1C           -12.5926931396      -28.9276472006      -26.7016716817  MEOH      739             0.0000000000
     21898      1431  MEOH      LP1A          -11.3903114945      -30.6446646905      -26.4946943379  MEOH      739             0.0000000000
     21899      1431  MEOH      LP1B          -11.2305274796      -30.8065913071      -27.1117826130  MEOH      739             0.0000000000
     21900      1432  MEOH      C1             -8.8210171712      -34.2591392989       14.1850896168  MEOH      740             0.0000000000
     21901      1432  MEOH      DC1            -8.8435650180      -34.2642594985       14.1818762300  MEOH      740             0.0000000000
     21902      1432  MEOH      O1             -7.5708076748      -33.9060849734       13.5979645019  MEOH      740             0.0000000000
     21903      1432  MEOH      DO1            -7.5864823683      -33.9144175977       13.6001323849  MEOH      740             0.0000000000
     21904      1432  MEOH      HO1            -7.7180170791      -33.3132135029       12.8444840362  MEOH      740             0.0000000000
     21905      1432  MEOH      HO2            -7.0163436894      -33.6054848946       14.3349239862  MEOH      740             0.0000000000
     21906      1432  MEOH      H1A            -8.6491517546      -35.0196719771       14.9765271219  MEOH      740             0.0000000000
     21907      1432  MEOH      H1B            -9.4878792333      -34.6893492427       13.4075708747  MEOH      740             0.0000000000
     21908      1432  MEOH      H1C            -9.2925485462      -33.3655249085       14.6470771549  MEOH      740             0.0000000000
     21909      1432  MEOH      LP1A           -7.4423566165      -33.6197813506       13.7529824402  MEOH      740             0.0000000000
     21910      1432  MEOH      LP1B           -7.4838331088      -34.1395319627       13.3521232359  MEOH      740             0.0000000000
     21911      1433  MEOH      C1            -22.1898070556      -35.3748277200       22.5305760292  MEOH      741             0.0000000000
     21912      1433  MEOH      DC1           -22.1918821714      -35.3740662219       22.5319842355  MEOH      741             0.0000000000
     21913      1433  MEOH      O1            -22.5194057380      -36.3563716664       23.5120786190  MEOH      741             0.0000000000
     21914      1433  MEOH      DO1           -22.5074239402      -36.3518034285       23.5187335443  MEOH      741             0.0000000000
     21915      1433  MEOH      HO1           -23.2498599628      -36.0115111111       24.0491147672  MEOH      741             0.0000000000
     21916      1433  MEOH      HO2           -22.6595827366      -37.1735708944       23.0086545126  MEOH      741             0.0000000000
     21917      1433  MEOH      H1A           -21.3399244728      -35.7426965393       21.9168227175  MEOH      741             0.0000000000
     21918      1433  MEOH      H1B           -21.8878408223      -34.4321773584       23.0351032234  MEOH      741             0.0000000000
     21919      1433  MEOH      H1C           -23.0567855546      -35.1810852774       21.8633930337  MEOH      741             0.0000000000
     21920      1433  MEOH      LP1A          -22.7593129858      -36.5771265782       23.3847531252  MEOH      741             0.0000000000
     21921      1433  MEOH      LP1B          -22.3265810908      -36.3072028117       23.8000040941  MEOH      741             0.0000000000
     21922      1434  MEOH      C1              0.5224772281       29.6461177261      -25.6686939050  MEOH      742             0.0000000000
     21923      1434  MEOH      DC1             0.5390943029       29.6628919982      -25.6563323868  MEOH      742             0.0000000000
     21924      1434  MEOH      O1              0.0988422554       29.3262415642      -26.9844676183  MEOH      742             0.0000000000
     21925      1434  MEOH      DO1             0.1109375134       29.3388591809      -26.9763199428  MEOH      742             0.0000000000
     21926      1434  MEOH      HO1            -0.1846927945       28.3987815397      -27.0025169698  MEOH      742             0.0000000000
     21927      1434  MEOH      HO2            -0.5224529051       30.0243066296      -27.2444627876  MEOH      742             0.0000000000
     21928      1434  MEOH      H1A             0.9147811069       30.6855333940      -25.6745022608  MEOH      742             0.0000000000
     21929      1434  MEOH      H1B             1.3215661144       28.9402526858      -25.3563919730  MEOH      742             0.0000000000
     21930      1434  MEOH      H1C            -0.3381658217       29.5783655457      -24.9693912633  MEOH      742             0.0000000000
     21931      1434  MEOH      LP1A           -0.2420312248       29.3967721980      -27.0209463814  MEOH      742             0.0000000000
     21932      1434  MEOH      LP1B            0.3706146632       29.2124460460      -27.1733864856  MEOH      742             0.0000000000
     21933      1435  MEOH      C1            -25.3412602074      -29.5012521317      -36.1879442471  MEOH      743             0.0000000000
     21934      1435  MEOH      DC1           -25.3388349973      -29.5088065503      -36.1852957383  MEOH      743             0.0000000000
     21935      1435  MEOH      O1            -26.3972501196      -28.9790899299      -35.3745315028  MEOH      743             0.0000000000
     21936      1435  MEOH      DO1           -26.3905646655      -28.9807744945      -35.3806536549  MEOH      743             0.0000000000
     21937      1435  MEOH      HO1           -26.9819138970      -28.4235259343      -35.9134349395  MEOH      743             0.0000000000
     21938      1435  MEOH      HO2           -26.7557985969      -29.7330878652      -34.8807399437  MEOH      743             0.0000000000
     21939      1435  MEOH      H1A           -24.6030176176      -30.0125740411      -35.5338274501  MEOH      743             0.0000000000
     21940      1435  MEOH      H1B           -24.8350807835      -28.6791770652      -36.7377587393  MEOH      743             0.0000000000
     21941      1435  MEOH      H1C           -25.7288109181      -30.2535109176      -36.9078276868  MEOH      743             0.0000000000
     21942      1435  MEOH      LP1A          -26.6678963470      -29.2010076061      -35.3727525606  MEOH      743             0.0000000000
     21943      1435  MEOH      LP1B          -26.2988936165      -28.6753296080      -35.2311590328  MEOH      743             0.0000000000
     21944      1436  MEOH      C1            -36.6857229205      -26.2062913811       24.7981465157  MEOH      744             0.0000000000
     21945      1436  MEOH      DC1           -36.6804005739      -26.2160774866       24.7938488104  MEOH      744             0.0000000000
     21946      1436  MEOH      O1            -36.3386758885      -27.0805215273       23.7173970198  MEOH      744             0.0000000000
     21947      1436  MEOH      DO1           -36.3540147460      -27.1017528449       23.7216179090  MEOH      744             0.0000000000
     21948      1436  MEOH      HO1           -35.5708740521      -27.6216203790       23.9594556341  MEOH      744             0.0000000000
     21949      1436  MEOH      HO2           -37.1676152667      -27.4632071161       23.3898130632  MEOH      744             0.0000000000
     21950      1436  MEOH      H1A           -37.4679724051      -25.4812931468       24.4870447534  MEOH      744             0.0000000000
     21951      1436  MEOH      H1B           -35.8135456518      -25.5909989459       25.1064370150  MEOH      744             0.0000000000
     21952      1436  MEOH      H1C           -37.0709349197      -26.7905437086       25.6610381273  MEOH      744             0.0000000000
     21953      1436  MEOH      LP1A          -36.5146925555      -27.3817038857       23.7458103959  MEOH      744             0.0000000000
     21954      1436  MEOH      LP1B          -36.1133255532      -26.9211706026       23.5021657276  MEOH      744             0.0000000000
     21955      1437  MEOH      C1             23.7307607650       21.6301249691      -26.7641826928  MEOH      745             0.0000000000
     21956      1437  MEOH      DC1            23.7367255721       21.6261331737      -26.7694206454  MEOH      745             0.0000000000
     21957      1437  MEOH      O1             22.3650474638       21.2297954999      -26.6545831899  MEOH      745             0.0000000000
     21958      1437  MEOH      DO1            22.3669326640       21.2259362845      -26.6582028048  MEOH      745             0.0000000000
     21959      1437  MEOH      HO1            21.8811779444       21.6129982277      -27.4028651940  MEOH      745             0.0000000000
     21960      1437  MEOH      HO2            22.3675098760       20.2709179328      -26.5081326901  MEOH      745             0.0000000000
     21961      1437  MEOH      H1A            24.2804839969       21.2873881969      -25.8615992488  MEOH      745             0.0000000000
     21962      1437  MEOH      H1B            23.7972058659       22.7380748661      -26.8126912162  MEOH      745             0.0000000000
     21963      1437  MEOH      H1C            24.1864419218       21.1776076071      -27.6707717513  MEOH      745             0.0000000000
     21964      1437  MEOH      LP1A           22.3160299725       20.9250314104      -26.8195563249  MEOH      745             0.0000000000
     21965      1437  MEOH      LP1B           22.1874674956       21.4616077526      -26.4616364760  MEOH      745             0.0000000000
     21966      1438  MEOH      C1             22.6868142992       -8.2133989564       25.4873907529  MEOH      746             0.0000000000
     21967      1438  MEOH      DC1            22.6849576819       -8.2276305968       25.4939532961  MEOH      746             0.0000000000
     21968      1438  MEOH      O1             22.5753662880       -8.2283428627       26.9093662818  MEOH      746             0.0000000000
     21969      1438  MEOH      DO1            22.5856853318       -8.2409207646       26.9087427053  MEOH      746             0.0000000000
     21970      1438  MEOH      HO1            22.9494083839       -7.3931884600       27.2310954159  MEOH      746             0.0000000000
     21971      1438  MEOH      HO2            21.6398861198       -8.4127696383       27.0875897911  MEOH      746             0.0000000000
     21972      1438  MEOH      H1A            22.2137918538       -9.1312233729       25.0773064854  MEOH      746             0.0000000000
     21973      1438  MEOH      H1B            23.7542226143       -8.1750798902       25.1816259089  MEOH      746             0.0000000000
     21974      1438  MEOH      H1C            22.1635958802       -7.3292050893       25.0645850148  MEOH      746             0.0000000000
     21975      1438  MEOH      LP1A           22.2673072724       -8.0937234612       27.0067174998  MEOH      746             0.0000000000
     21976      1438  MEOH      LP1B           22.8598184166       -8.3758399226       27.0501910093  MEOH      746             0.0000000000
     21977      1439  MEOH      C1             -2.7553811116       -3.7860425210      -33.8537622447  MEOH      747             0.0000000000
     21978      1439  MEOH      DC1            -2.7544069087       -3.7906473333      -33.8416444163  MEOH      747             0.0000000000
     21979      1439  MEOH      O1             -2.3722438403       -5.0789142333      -33.3750988022  MEOH      747             0.0000000000
     21980      1439  MEOH      DO1            -2.3750135936       -5.0824988948      -33.3697623670  MEOH      747             0.0000000000
     21981      1439  MEOH      HO1            -1.9690968652       -4.9728106452      -32.4992480472  MEOH      747             0.0000000000
     21982      1439  MEOH      HO2            -3.1456245368       -5.6518469555      -33.4956408910  MEOH      747             0.0000000000
     21983      1439  MEOH      H1A            -3.0931212458       -3.8601361189      -34.9095854976  MEOH      747             0.0000000000
     21984      1439  MEOH      H1B            -1.8919051049       -3.0888585271      -33.8021418556  MEOH      747             0.0000000000
     21985      1439  MEOH      H1C            -3.5932782574       -3.3757684774      -33.2505006231  MEOH      747             0.0000000000
     21986      1439  MEOH      LP1A           -2.6374979485       -5.2250464232      -33.1996404277  MEOH      747             0.0000000000
     21987      1439  MEOH      LP1B           -2.0468914538       -5.1538635123      -33.4801151350  MEOH      747             0.0000000000
     21988      1440  MEOH      C1             17.9833562839      -32.2185140539      -23.0777380007  MEOH      748             0.0000000000
     21989      1440  MEOH      DC1            17.9759896079      -32.2215301421      -23.0696042396  MEOH      748             0.0000000000
     21990      1440  MEOH      O1             16.6806844003      -32.6584390219      -23.4642726242  MEOH      748             0.0000000000
     21991      1440  MEOH      DO1            16.6734767574      -32.6534605074      -23.4571173714  MEOH      748             0.0000000000
     21992      1440  MEOH      HO1            16.7941152646      -33.3152546146      -24.1689900972  MEOH      748             0.0000000000
     21993      1440  MEOH      HO2            16.2147002014      -32.8926550395      -22.6464085869  MEOH      748             0.0000000000
     21994      1440  MEOH      H1A            17.8949921475      -31.4158632652      -22.3146754259  MEOH      748             0.0000000000
     21995      1440  MEOH      H1B            18.5360727754      -31.8198907037      -23.9551916493  MEOH      748             0.0000000000
     21996      1440  MEOH      H1C            18.5524303317      -33.0725229312      -22.6521271859  MEOH      748             0.0000000000
     21997      1440  MEOH      LP1A           16.5831240491      -32.9310092037      -23.2675813079  MEOH      748             0.0000000000
     21998      1440  MEOH      LP1B           16.5551992383      -32.4525736615      -23.7179908290  MEOH      748             0.0000000000
     21999      1441  MEOH      C1             29.9755628618       14.3480979880      -36.5131326574  MEOH      749             0.0000000000
     22000      1441  MEOH      DC1            29.9775055103       14.3466899706      -36.5152844369  MEOH      749             0.0000000000
     22001      1441  MEOH      O1             29.7189135372       13.7102828784      -35.2692275893  MEOH      749             0.0000000000
     22002      1441  MEOH      DO1            29.7106307156       13.7101122280      -35.2708354267  MEOH      749             0.0000000000
     22003      1441  MEOH      HO1            28.7557283909       13.6277660674      -35.1894444458  MEOH      749             0.0000000000
     22004      1441  MEOH      HO2            30.2660465330       12.9096646589      -35.2928062264  MEOH      749             0.0000000000
     22005      1441  MEOH      H1A            31.0619490026       14.5151935789      -36.6748893169  MEOH      749             0.0000000000
     22006      1441  MEOH      H1B            29.4468089168       15.3228862908      -36.5804232972  MEOH      749             0.0000000000
     22007      1441  MEOH      H1C            29.6146230330       13.6485262779      -37.2971242797  MEOH      749             0.0000000000
     22008      1441  MEOH      LP1A           29.7158356774       13.3628279072      -35.3112462725  MEOH      749             0.0000000000
     22009      1441  MEOH      LP1B           29.6900404920       13.9497587763      -35.0156183592  MEOH      749             0.0000000000
     22010      1442  MEOH      C1             31.3035231280       29.1566998365       28.9528594549  MEOH      750             0.0000000000
     22011      1442  MEOH      DC1            31.3211384503       29.1768450494       28.9317762184  MEOH      750             0.0000000000
     22012      1442  MEOH      O1             32.6108116277       29.7328248507       28.9985107894  MEOH      750             0.0000000000
     22013      1442  MEOH      DO1            32.6306243132       29.7410533135       28.9922072371  MEOH      750             0.0000000000
     22014      1442  MEOH      HO1            32.6629440605       30.1275276704       29.8830399834  MEOH      750             0.0000000000
     22015      1442  MEOH      HO2            33.2176031517       29.0135436107       28.7632693298  MEOH      750             0.0000000000
     22016      1442  MEOH      H1A            31.1391091821       28.6392041041       27.9835879648  MEOH      750             0.0000000000
     22017      1442  MEOH      H1B            30.5315365336       29.9441539059       29.0880400324  MEOH      750             0.0000000000
     22018      1442  MEOH      H1C            31.1905844321       28.4194719000       29.7763039407  MEOH      750             0.0000000000
     22019      1442  MEOH      LP1A           32.8414648865       29.4971429934       29.1157845562  MEOH      750             0.0000000000
     22020      1442  MEOH      LP1B           32.6011153720       30.0613484547       28.8781852966  MEOH      750             0.0000000000
     22021      1443  MEOH      C1            -27.8274681727       -2.4232076251       34.0964943600  MEOH      751             0.0000000000
     22022      1443  MEOH      DC1           -27.8441621197       -2.4186243033       34.0989074413  MEOH      751             0.0000000000
     22023      1443  MEOH      O1            -28.2667203079       -1.1473384048       33.6297394223  MEOH      751             0.0000000000
     22024      1443  MEOH      DO1           -28.2729043870       -1.1454880893       33.6320643729  MEOH      751             0.0000000000
     22025      1443  MEOH      HO1           -27.5213406845       -0.7433291450       33.1584796903  MEOH      751             0.0000000000
     22026      1443  MEOH      HO2           -29.1139542147       -1.2947307539       33.1809965066  MEOH      751             0.0000000000
     22027      1443  MEOH      H1A           -28.5876831817       -2.8667318492       34.7744917071  MEOH      751             0.0000000000
     22028      1443  MEOH      H1B           -26.8671746221       -2.3327087135       34.6478266055  MEOH      751             0.0000000000
     22029      1443  MEOH      H1C           -27.6654017582       -3.0978432205       33.2287834109  MEOH      751             0.0000000000
     22030      1443  MEOH      LP1A          -28.4112453734       -1.1791649991       33.3125650644  MEOH      751             0.0000000000
     22031      1443  MEOH      LP1B          -28.2061686355       -0.9034162492       33.8733281680  MEOH      751             0.0000000000
     22032      1444  MEOH      C1            -35.6320194751       27.7937730276       29.2100737689  MEOH      752             0.0000000000
     22033      1444  MEOH      DC1           -35.6033477400       27.7812847993       29.1995499691  MEOH      752             0.0000000000
     22034      1444  MEOH      O1            -36.9688478640       27.8570291146       29.6992152451  MEOH      752             0.0000000000
     22035      1444  MEOH      DO1           -36.9420722849       27.8508676876       29.6992969289  MEOH      752             0.0000000000
     22036      1444  MEOH      HO1           -37.5491805459       27.3247036177       29.1328729956  MEOH      752             0.0000000000
     22037      1444  MEOH      HO2           -36.9261203528       27.6761525803       30.6512436269  MEOH      752             0.0000000000
     22038      1444  MEOH      H1A           -35.1383876972       28.7639759716       29.4322334318  MEOH      752             0.0000000000
     22039      1444  MEOH      H1B           -35.6293829074       27.6220699036       28.1124253345  MEOH      752             0.0000000000
     22040      1444  MEOH      H1C           -35.0894296649       26.9795921457       29.7364071148  MEOH      752             0.0000000000
     22041      1444  MEOH      LP1A          -37.0226973998       27.6027757098       29.9336409980  MEOH      752             0.0000000000
     22042      1444  MEOH      LP1B          -37.1361679564       28.1287831827       29.5555012474  MEOH      752             0.0000000000
     22043      1445  MEOH      C1              1.5912678756       16.8292124861        5.2861428323  MEOH      753             0.0000000000
     22044      1445  MEOH      DC1             1.5878377733       16.8208128660        5.2763536882  MEOH      753             0.0000000000
     22045      1445  MEOH      O1              2.8852723190       16.3772971823        5.6901088715  MEOH      753             0.0000000000
     22046      1445  MEOH      DO1             2.8853145875       16.3701056987        5.6782182726  MEOH      753             0.0000000000
     22047      1445  MEOH      HO1             3.1946495751       17.0054131052        6.3614181152  MEOH      753             0.0000000000
     22048      1445  MEOH      HO2             2.7798148083       15.4402830139        5.9176680116  MEOH      753             0.0000000000
     22049      1445  MEOH      H1A             1.1905127840       16.1686146204        4.4878153203  MEOH      753             0.0000000000
     22050      1445  MEOH      H1B             1.6541207659       17.8743026791        4.9144480595  MEOH      753             0.0000000000
     22051      1445  MEOH      H1C             0.8976979424       16.8040721023        6.1536966977  MEOH      753             0.0000000000
     22052      1445  MEOH      LP1A            2.8556149145       16.1512630172        5.9556818267  MEOH      753             0.0000000000
     22053      1445  MEOH      LP1B            3.1309509348       16.5188139472        5.4848894207  MEOH      753             0.0000000000
     22054      1446  MEOH      C1             24.9781036901       10.7908993960       -5.4782599286  MEOH      754             0.0000000000
     22055      1446  MEOH      DC1            24.9740176439       10.8063294918       -5.4744132232  MEOH      754             0.0000000000
     22056      1446  MEOH      O1             25.2437689580       11.8774861322       -4.5826945934  MEOH      754             0.0000000000
     22057      1446  MEOH      DO1            25.2453174547       11.8841996079       -4.5679654737  MEOH      754             0.0000000000
     22058      1446  MEOH      HO1            25.7321951884       12.5490841865       -5.0839887894  MEOH      754             0.0000000000
     22059      1446  MEOH      HO2            24.3994115442       12.0892941499       -4.1547951628  MEOH      754             0.0000000000
     22060      1446  MEOH      H1A            24.5389110128        9.9355222683       -4.9216983761  MEOH      754             0.0000000000
     22061      1446  MEOH      H1B            25.9195033720       10.4578928227       -5.9652858648  MEOH      754             0.0000000000
     22062      1446  MEOH      H1C            24.2632328476       11.0942366463       -6.2727831767  MEOH      754             0.0000000000
     22063      1446  MEOH      LP1A           24.9794348407       12.1067458878       -4.5909067134  MEOH      754             0.0000000000
     22064      1446  MEOH      LP1B           25.5470980400       11.8241454024       -4.4164230247  MEOH      754             0.0000000000
     22065      1447  MEOH      C1             19.0776031506        1.7452854931      -30.1600230227  MEOH      755             0.0000000000
     22066      1447  MEOH      DC1            19.0758387671        1.7370622673      -30.1513605113  MEOH      755             0.0000000000
     22067      1447  MEOH      O1             17.8270950832        2.3801189477      -30.4255359482  MEOH      755             0.0000000000
     22068      1447  MEOH      DO1            17.8238925244        2.3740623369      -30.4143914960  MEOH      755             0.0000000000
     22069      1447  MEOH      HO1            17.2910714409        2.3499892835      -29.6176554743  MEOH      755             0.0000000000
     22070      1447  MEOH      HO2            18.0572646883        3.2361908861      -30.8193160761  MEOH      755             0.0000000000
     22071      1447  MEOH      H1A            19.6929516710        1.7446910155      -31.0850456414  MEOH      755             0.0000000000
     22072      1447  MEOH      H1B            18.9195867363        0.6954921896      -29.8324778589  MEOH      755             0.0000000000
     22073      1447  MEOH      H1C            19.6236192201        2.3064695744      -29.3718226172  MEOH      755             0.0000000000
     22074      1447  MEOH      LP1A           17.8502527024        2.7228765977      -30.3585962886  MEOH      755             0.0000000000
     22075      1447  MEOH      LP1B           17.5975254573        2.1459179944      -30.5477967364  MEOH      755             0.0000000000
     22076      1448  MEOH      C1             -7.4750296193       18.9472554104       29.2061718025  MEOH      756             0.0000000000
     22077      1448  MEOH      DC1            -7.4775585687       18.9505991038       29.2188394157  MEOH      756             0.0000000000
     22078      1448  MEOH      O1             -7.3743544172       18.2788154038       27.9476354163  MEOH      756             0.0000000000
     22079      1448  MEOH      DO1            -7.3811091724       18.2863426464       27.9548843221  MEOH      756             0.0000000000
     22080      1448  MEOH      HO1            -6.4690353137       17.9441708975       27.8511451255  MEOH      756             0.0000000000
     22081      1448  MEOH      HO2            -8.1225308324       17.6623995672       27.9135243029  MEOH      756             0.0000000000
     22082      1448  MEOH      H1A            -8.4854181759       19.3994349952       29.3008797093  MEOH      756             0.0000000000
     22083      1448  MEOH      H1B            -6.7120105535       19.7523297379       29.2692450482  MEOH      756             0.0000000000
     22084      1448  MEOH      H1C            -7.3264991429       18.2188483568       30.0318126824  MEOH      756             0.0000000000
     22085      1448  MEOH      LP1A           -7.4606018219       17.9415609793       27.9839787563  MEOH      756             0.0000000000
     22086      1448  MEOH      LP1B           -7.2822551798       18.5064382799       27.6982249980  MEOH      756             0.0000000000
     22087      1449  MEOH      C1             10.9995729317       -7.9217615076       29.0007723854  MEOH      757             0.0000000000
     22088      1449  MEOH      DC1            10.9932188975       -7.9238623438       29.0037774849  MEOH      757             0.0000000000
     22089      1449  MEOH      O1             12.0717255746       -6.9798469965       29.0401283149  MEOH      757             0.0000000000
     22090      1449  MEOH      DO1            12.0653971162       -6.9818809503       29.0398412328  MEOH      757             0.0000000000
     22091      1449  MEOH      HO1            12.5529092791       -7.1076900439       29.8726055805  MEOH      757             0.0000000000
     22092      1449  MEOH      HO2            12.5389170326       -7.0838797924       28.1964403871  MEOH      757             0.0000000000
     22093      1449  MEOH      H1A            10.3784462063       -7.7312223811       28.0995413204  MEOH      757             0.0000000000
     22094      1449  MEOH      H1B            10.3624254970       -7.8248078024       29.9057387525  MEOH      757             0.0000000000
     22095      1449  MEOH      H1C            11.4041503602       -8.9547844289       28.9415968040  MEOH      757             0.0000000000
     22096      1449  MEOH      LP1A           12.3570792499       -7.1169791324       28.8909034600  MEOH      757             0.0000000000
     22097      1449  MEOH      LP1B           11.9629814103       -6.6807068246       29.1856957022  MEOH      757             0.0000000000
     22098      1450  MEOH      C1              8.6401160897      -18.6287621122       15.9766544305  MEOH      758             0.0000000000
     22099      1450  MEOH      DC1             8.6521539372      -18.6294945390       15.9741306873  MEOH      758             0.0000000000
     22100      1450  MEOH      O1              7.8549884117      -19.7910415415       16.2624027514  MEOH      758             0.0000000000
     22101      1450  MEOH      DO1             7.8577634137      -19.7861981626       16.2655919435  MEOH      758             0.0000000000
     22102      1450  MEOH      HO1             8.3901876215      -20.4069051141       16.7869729249  MEOH      758             0.0000000000
     22103      1450  MEOH      HO2             6.9955344098      -19.4703681114       16.5776920945  MEOH      758             0.0000000000
     22104      1450  MEOH      H1A             8.0888740857      -17.9809131311       15.2619902076  MEOH      758             0.0000000000
     22105      1450  MEOH      H1B             9.6005569459      -18.9237959059       15.5024926202  MEOH      758             0.0000000000
     22106      1450  MEOH      H1C             8.8304084378      -18.0488291145       16.9049795580  MEOH      758             0.0000000000
     22107      1450  MEOH      LP1A            7.6764657915      -19.7447427748       16.5598688810  MEOH      758             0.0000000000
     22108      1450  MEOH      LP1B            7.8933729235      -20.0272007335       16.0069512584  MEOH      758             0.0000000000
     22109      1451  MEOH      C1            -19.6504460547      -29.4070899144        9.6445490784  MEOH      759             0.0000000000
     22110      1451  MEOH      DC1           -19.6440232859      -29.4189522116        9.6427746959  MEOH      759             0.0000000000
     22111      1451  MEOH      O1            -19.4300470413      -30.5080533218       10.5306457928  MEOH      759             0.0000000000
     22112      1451  MEOH      DO1           -19.4168202442      -30.5190531339       10.5277833406  MEOH      759             0.0000000000
     22113      1451  MEOH      HO1           -19.7096266808      -31.3110402225       10.0637975708  MEOH      759             0.0000000000
     22114      1451  MEOH      HO2           -18.5333263105      -30.4036239214       10.8854505731  MEOH      759             0.0000000000
     22115      1451  MEOH      H1A           -19.5233157012      -28.4484904346       10.1915828182  MEOH      759             0.0000000000
     22116      1451  MEOH      H1B           -20.6784774364      -29.4531700857        9.2258020228  MEOH      759             0.0000000000
     22117      1451  MEOH      H1C           -18.9232893926      -29.4424295199        8.8053141285  MEOH      759             0.0000000000
     22118      1451  MEOH      LP1A          -19.1056413463      -30.6325087502       10.4885531401  MEOH      759             0.0000000000
     22119      1451  MEOH      LP1B          -19.7135538036      -30.5606600450       10.7290303901  MEOH      759             0.0000000000
     22120      1452  MEOH      C1            -14.8742100877      -27.7985984947      -22.4524452034  MEOH      760             0.0000000000
     22121      1452  MEOH      DC1           -14.8721007010      -27.7925013757      -22.4451165154  MEOH      760             0.0000000000
     22122      1452  MEOH      O1            -15.8010119890      -27.3529334730      -21.4650594831  MEOH      760             0.0000000000
     22123      1452  MEOH      DO1           -15.7959564294      -27.3457756074      -21.4584309605  MEOH      760             0.0000000000
     22124      1452  MEOH      HO1           -16.4728287214      -26.8199506190      -21.9183712471  MEOH      760             0.0000000000
     22125      1452  MEOH      HO2           -16.0470650516      -28.1266475857      -20.9342823518  MEOH      760             0.0000000000
     22126      1452  MEOH      H1A           -13.9673568109      -28.2251153126      -21.9728395941  MEOH      760             0.0000000000
     22127      1452  MEOH      H1B           -14.5388000442      -26.9381638428      -23.0700804624  MEOH      760             0.0000000000
     22128      1452  MEOH      H1C           -15.3457172276      -28.5675697286      -23.1010477461  MEOH      760             0.0000000000
     22129      1452  MEOH      LP1A          -16.0572776975      -27.5881922598      -21.4265732530  MEOH      760             0.0000000000
     22130      1452  MEOH      LP1B          -15.6943884192      -27.0483203497      -21.3296258852  MEOH      760             0.0000000000
     22131      1453  MEOH      C1              3.3251561521       31.7232233802       19.7475445057  MEOH      761             0.0000000000
     22132      1453  MEOH      DC1             3.3217079322       31.7173644774       19.7643072201  MEOH      761             0.0000000000
     22133      1453  MEOH      O1              2.0338908854       31.8943982451       20.3244391166  MEOH      761             0.0000000000
     22134      1453  MEOH      DO1             2.0289001994       31.8871783287       20.3341746230  MEOH      761             0.0000000000
     22135      1453  MEOH      HO1             1.9374520402       31.2371357927       21.0312669724  MEOH      761             0.0000000000
     22136      1453  MEOH      HO2             1.9534143338       32.8425396059       20.5127247649  MEOH      761             0.0000000000
     22137      1453  MEOH      H1A             3.4197531373       32.3751897448       18.8529427677  MEOH      761             0.0000000000
     22138      1453  MEOH      H1B             3.4719072066       30.6676801542       19.4335164383  MEOH      761             0.0000000000
     22139      1453  MEOH      H1C             4.1087069941       32.0084206732       20.4817322082  MEOH      761             0.0000000000
     22140      1453  MEOH      LP1A            2.0492557049       32.1271582066       20.5853734429  MEOH      761             0.0000000000
     22141      1453  MEOH      LP1B            1.7993993697       31.6990098647       20.1531583241  MEOH      761             0.0000000000
     22142      1454  MEOH      C1              7.4958003730       32.4454747363       -7.6698443310  MEOH      762             0.0000000000
     22143      1454  MEOH      DC1             7.4995235132       32.4692019514       -7.6733478617  MEOH      762             0.0000000000
     22144      1454  MEOH      O1              7.1002167677       31.0779461828       -7.7634011702  MEOH      762             0.0000000000
     22145      1454  MEOH      DO1             7.1028686080       31.0938297207       -7.7764961295  MEOH      762             0.0000000000
     22146      1454  MEOH      HO1             7.0505920573       30.8242729064       -8.6983275086  MEOH      762             0.0000000000
     22147      1454  MEOH      HO2             7.6818016821       30.5934670787       -7.1568214269  MEOH      762             0.0000000000
     22148      1454  MEOH      H1A             7.4603264986       32.7558802865       -6.6036778332  MEOH      762             0.0000000000
     22149      1454  MEOH      H1B             6.8000850967       33.0773001749       -8.2623794533  MEOH      762             0.0000000000
     22150      1454  MEOH      H1C             8.5349023629       32.5640726237       -8.0447077669  MEOH      762             0.0000000000
     22151      1454  MEOH      LP1A            7.3824269446       30.8710142045       -7.7573536580  MEOH      762             0.0000000000
     22152      1454  MEOH      LP1B            6.7511384459       31.0547445001       -7.7736971457  MEOH      762             0.0000000000
     22153      1455  MEOH      C1              5.4134902493      -18.0824064211       27.7462604349  MEOH      763             0.0000000000
     22154      1455  MEOH      DC1             5.4031227947      -18.0713284013       27.7452320442  MEOH      763             0.0000000000
     22155      1455  MEOH      O1              5.3690669590      -16.6878731952       27.4408077823  MEOH      763             0.0000000000
     22156      1455  MEOH      DO1             5.3644574472      -16.6798795064       27.4389391306  MEOH      763             0.0000000000
     22157      1455  MEOH      HO1             4.8902627341      -16.5908104068       26.6028189217  MEOH      763             0.0000000000
     22158      1455  MEOH      HO2             5.0778817814      -16.2399390347       28.2504164410  MEOH      763             0.0000000000
     22159      1455  MEOH      H1A             6.1235156053      -18.2600754226       28.5820945818  MEOH      763             0.0000000000
     22160      1455  MEOH      H1B             5.7857686693      -18.6564677198       26.8709414052  MEOH      763             0.0000000000
     22161      1455  MEOH      H1C             4.4064322124      -18.4454021828       28.0435636259  MEOH      763             0.0000000000
     22162      1455  MEOH      LP1A            5.0850682523      -16.5427402776       27.5849645402  MEOH      763             0.0000000000
     22163      1455  MEOH      LP1B            5.6514438673      -16.5969562400       27.2550730551  MEOH      763             0.0000000000
     22164      1456  MEOH      C1             -1.9139390224       24.9920197037      -13.3499290206  MEOH      764             0.0000000000
     22165      1456  MEOH      DC1            -1.9061784420       24.9828688233      -13.3596955442  MEOH      764             0.0000000000
     22166      1456  MEOH      O1             -1.5864862715       23.7348154993      -12.7629365570  MEOH      764             0.0000000000
     22167      1456  MEOH      DO1            -1.5838520353       23.7256930705      -12.7741810378  MEOH      764             0.0000000000
     22168      1456  MEOH      HO1            -2.0797355965       23.0473410890      -13.2372613824  MEOH      764             0.0000000000
     22169      1456  MEOH      HO2            -0.6192827927       23.7153504793      -12.6919538569  MEOH      764             0.0000000000
     22170      1456  MEOH      H1A            -1.5356049616       25.8021296558      -12.6904548332  MEOH      764             0.0000000000
     22171      1456  MEOH      H1B            -3.0150292044       25.1128747887      -13.4354594887  MEOH      764             0.0000000000
     22172      1456  MEOH      H1C            -1.4520706612       25.0778872679      -14.3567186604  MEOH      764             0.0000000000
     22173      1456  MEOH      LP1A           -1.3056737073       23.5983564898      -12.9211239223  MEOH      764             0.0000000000
     22174      1456  MEOH      LP1B           -1.8053231171       23.6654257925      -12.4987481705  MEOH      764             0.0000000000
     22175      1457  MEOH      C1             -3.1855711423      -36.2407255157      -11.5568544111  MEOH      765             0.0000000000
     22176      1457  MEOH      DC1            -3.1912772302      -36.2224583661      -11.5662770291  MEOH      765             0.0000000000
     22177      1457  MEOH      O1             -3.9067020649      -35.0619799340      -11.2744485913  MEOH      765             0.0000000000
     22178      1457  MEOH      DO1            -3.8863988216      -35.0494022686      -11.2582734505  MEOH      765             0.0000000000
     22179      1457  MEOH      HO1            -4.0635400957      -34.5939433484      -12.1094597209  MEOH      765             0.0000000000
     22180      1457  MEOH      HO2            -4.6805771076      -35.3792600294      -10.7831739629  MEOH      765             0.0000000000
     22181      1457  MEOH      H1A            -3.0735294655      -36.7804440060      -10.5922448452  MEOH      765             0.0000000000
     22182      1457  MEOH      H1B            -2.1803188119      -36.0170852124      -11.9737162191  MEOH      765             0.0000000000
     22183      1457  MEOH      H1C            -3.7424266845      -36.8989981651      -12.2575041285  MEOH      765             0.0000000000
     22184      1457  MEOH      LP1A           -4.2505078049      -35.1269032857      -11.2835354773  MEOH      765             0.0000000000
     22185      1457  MEOH      LP1B           -3.6852912729      -34.7996305413      -11.2062572619  MEOH      765             0.0000000000
     22186      1458  MEOH      C1             -0.4976777126       -6.3868997092       -9.3492379606  MEOH      766             0.0000000000
     22187      1458  MEOH      DC1            -0.4980164973       -6.4147274581       -9.3423780333  MEOH      766             0.0000000000
     22188      1458  MEOH      O1             -1.0349519916       -7.5637872853       -8.7389689468  MEOH      766             0.0000000000
     22189      1458  MEOH      DO1            -1.0377254566       -7.5803930626       -8.7238697719  MEOH      766             0.0000000000
     22190      1458  MEOH      HO1            -0.2911262314       -8.1225943320       -8.4644549677  MEOH      766             0.0000000000
     22191      1458  MEOH      HO2            -1.7026002589       -7.2571904214       -8.1056095273  MEOH      766             0.0000000000
     22192      1458  MEOH      H1A            -1.3129999740       -5.7587343270       -9.7675427096  MEOH      766             0.0000000000
     22193      1458  MEOH      H1B             0.1981568794       -6.6556941729      -10.1725755323  MEOH      766             0.0000000000
     22194      1458  MEOH      H1C             0.0345079130       -5.7755409510       -8.5894090781  MEOH      766             0.0000000000
     22195      1458  MEOH      LP1A           -1.0807635344       -7.5105698151       -8.3960852881  MEOH      766             0.0000000000
     22196      1458  MEOH      LP1B           -1.0897028464       -7.8100767227       -8.9815464745  MEOH      766             0.0000000000
     22197      1459  MEOH      C1             -8.3698468945       13.0687184647      -13.4468642276  MEOH      767             0.0000000000
     22198      1459  MEOH      DC1            -8.3770574635       13.0847725901      -13.4464346512  MEOH      767             0.0000000000
     22199      1459  MEOH      O1             -9.3586518373       12.0681312695      -13.6594637022  MEOH      767             0.0000000000
     22200      1459  MEOH      DO1            -9.3762289037       12.0736492107      -13.6533950090  MEOH      767             0.0000000000
     22201      1459  MEOH      HO1            -9.0571924506       11.5720518663      -14.4365914037  MEOH      767             0.0000000000
     22202      1459  MEOH      HO2            -9.4577223436       11.6180459297      -12.8059367714  MEOH      767             0.0000000000
     22203      1459  MEOH      H1A            -8.5946672335       13.6336833637      -12.5170301135  MEOH      767             0.0000000000
     22204      1459  MEOH      H1B            -8.3420141518       13.7600138721      -14.3161495654  MEOH      767             0.0000000000
     22205      1459  MEOH      H1C            -7.3778176905       12.5817313593      -13.3326599477  MEOH      767             0.0000000000
     22206      1459  MEOH      LP1A           -9.2787691464       11.7802430207      -13.4771477349  MEOH      767             0.0000000000
     22207      1459  MEOH      LP1B           -9.6108076631       12.1915220840      -13.8684903666  MEOH      767             0.0000000000
     22208      1460  MEOH      C1             -1.4508161655       -5.3809209589      -24.2497201870  MEOH      768             0.0000000000
     22209      1460  MEOH      DC1            -1.4361705964       -5.3886554651      -24.2616530719  MEOH      768             0.0000000000
     22210      1460  MEOH      O1             -2.7128749209       -5.4794465502      -24.9145599784  MEOH      768             0.0000000000
     22211      1460  MEOH      DO1            -2.7024187154       -5.4798101762      -24.9191606109  MEOH      768             0.0000000000
     22212      1460  MEOH      HO1            -3.0870433822       -4.5877770919      -24.9908721044  MEOH      768             0.0000000000
     22213      1460  MEOH      HO2            -2.5623897412       -6.0189109102      -25.7065400380  MEOH      768             0.0000000000
     22214      1460  MEOH      H1A            -1.0756576085       -6.3982553369      -24.0076296622  MEOH      768             0.0000000000
     22215      1460  MEOH      H1B            -1.5612473607       -4.8006113163      -23.3087809380  MEOH      768             0.0000000000
     22216      1460  MEOH      H1C            -0.7137115535       -4.8678486887      -24.9037497250  MEOH      768             0.0000000000
     22217      1460  MEOH      LP1A           -2.6679718673       -5.4553155665      -25.2608278103  MEOH      768             0.0000000000
     22218      1460  MEOH      LP1B           -2.9677790241       -5.5314497757      -24.6804242001  MEOH      768             0.0000000000
     22219      1461  MEOH      C1            -14.8575808742      -15.7188944397      -24.1523264274  MEOH      769             0.0000000000
     22220      1461  MEOH      DC1           -14.8489704764      -15.7284707708      -24.1656047871  MEOH      769             0.0000000000
     22221      1461  MEOH      O1            -13.9552761131      -14.7357901470      -24.6646591818  MEOH      769             0.0000000000
     22222      1461  MEOH      DO1           -13.9454495792      -14.7433817442      -24.6806992686  MEOH      769             0.0000000000
     22223      1461  MEOH      HO1           -14.4766804039      -13.9216290828      -24.7432678785  MEOH      769             0.0000000000
     22224      1461  MEOH      HO2           -13.1952655771      -14.7483106944      -24.0620587986  MEOH      769             0.0000000000
     22225      1461  MEOH      H1A           -14.3335817964      -16.6867335925      -24.0005590375  MEOH      769             0.0000000000
     22226      1461  MEOH      H1B           -15.7057414969      -15.8558872504      -24.8567251285  MEOH      769             0.0000000000
     22227      1461  MEOH      H1C           -15.2612168792      -15.3760143631      -23.1756830792  MEOH      769             0.0000000000
     22228      1461  MEOH      LP1A          -13.7918666561      -14.5741628941      -24.4007008887  MEOH      769             0.0000000000
     22229      1461  MEOH      LP1B          -13.9591430077      -14.7405634216      -25.0146052676  MEOH      769             0.0000000000
     22230      1462  MEOH      C1            -12.6899961022       14.7312330881        6.3029098805  MEOH      770             0.0000000000
     22231      1462  MEOH      DC1           -12.6823208691       14.7378653753        6.3038990689  MEOH      770             0.0000000000
     22232      1462  MEOH      O1            -13.9317930304       14.5776254649        5.6200158827  MEOH      770             0.0000000000
     22233      1462  MEOH      DO1           -13.9252608765       14.5822284943        5.6184694331  MEOH      770             0.0000000000
     22234      1462  MEOH      HO1           -14.5850924384       14.2827807607        6.2735956283  MEOH      770             0.0000000000
     22235      1462  MEOH      HO2           -14.0739582375       15.4052007011        5.1344149310  MEOH      770             0.0000000000
     22236      1462  MEOH      H1A           -11.8959113797       15.0069149745        5.5764458748  MEOH      770             0.0000000000
     22237      1462  MEOH      H1B           -12.4112442496       13.7792491478        6.8032547437  MEOH      770             0.0000000000
     22238      1462  MEOH      H1C           -12.7835831945       15.5359424815        7.0631764457  MEOH      770             0.0000000000
     22239      1462  MEOH      LP1A          -14.1087248406       14.8795850979        5.6239547420  MEOH      770             0.0000000000
     22240      1462  MEOH      LP1B          -13.9584354377       14.2531366390        5.4915745187  MEOH      770             0.0000000000
     22241      1463  MEOH      C1            -15.0830315886       -1.4644674149      -18.3661300547  MEOH      771             0.0000000000
     22242      1463  MEOH      DC1           -15.0974961210       -1.4681093481      -18.3775484838  MEOH      771             0.0000000000
     22243      1463  MEOH      O1            -13.8918702365       -0.6838357943      -18.3410417829  MEOH      771             0.0000000000
     22244      1463  MEOH      DO1           -13.8964689056       -0.6987074992      -18.3610602011  MEOH      771             0.0000000000
     22245      1463  MEOH      HO1           -13.3214151004       -0.9902411885      -17.6188252828  MEOH      771             0.0000000000
     22246      1463  MEOH      HO2           -13.5787110575       -0.6194680622      -19.2568409550  MEOH      771             0.0000000000
     22247      1463  MEOH      H1A           -15.8424618623       -0.9433437763      -18.9874325691  MEOH      771             0.0000000000
     22248      1463  MEOH      H1B           -15.4896780065       -1.5666237035      -17.3372842042  MEOH      771             0.0000000000
     22249      1463  MEOH      H1C           -14.8703501122       -2.4683821262      -18.7918563069  MEOH      771             0.0000000000
     22250      1463  MEOH      LP1A          -13.6494721418       -0.8286379846      -18.5478641448  MEOH      771             0.0000000000
     22251      1463  MEOH      LP1B          -13.9378355311       -0.4017664317      -18.1389921198  MEOH      771             0.0000000000
     22252      1464  MEOH      C1             36.0407208877       -6.6401638021        1.9073046875  MEOH      772             0.0000000000
     22253      1464  MEOH      DC1            36.0462003518       -6.6420226336        1.9068138628  MEOH      772             0.0000000000
     22254      1464  MEOH      O1             35.2479832691       -5.4766886951        1.6878478071  MEOH      772             0.0000000000
     22255      1464  MEOH      DO1            35.2511098469       -5.4817275089        1.6882942515  MEOH      772             0.0000000000
     22256      1464  MEOH      HO1            34.5190371924       -5.5096316772        2.3269505983  MEOH      772             0.0000000000
     22257      1464  MEOH      HO2            35.8685790847       -4.7317252855        1.7159610064  MEOH      772             0.0000000000
     22258      1464  MEOH      H1A            36.9426406418       -6.6192272774        1.2589040232  MEOH      772             0.0000000000
     22259      1464  MEOH      H1B            35.4535871899       -7.5642140416        1.7182909936  MEOH      772             0.0000000000
     22260      1464  MEOH      H1C            36.3438115401       -6.6520988057        2.9760958795  MEOH      772             0.0000000000
     22261      1464  MEOH      LP1A           35.3679238900       -5.2116574099        1.8824568134  MEOH      772             0.0000000000
     22262      1464  MEOH      LP1B           35.0019271931       -5.5429916531        1.4479304772  MEOH      772             0.0000000000
     22263      1465  MEOH      C1             17.7913182363      -12.7593246422       -9.3053398888  MEOH      773             0.0000000000
     22264      1465  MEOH      DC1            17.7981541520      -12.7444038415       -9.3193844425  MEOH      773             0.0000000000
     22265      1465  MEOH      O1             18.5636495770      -13.8728851669       -8.8590407559  MEOH      773             0.0000000000
     22266      1465  MEOH      DO1            18.5798423910      -13.8642748119       -8.8854762767  MEOH      773             0.0000000000
     22267      1465  MEOH      HO1            18.2642526241      -14.6670197986       -9.3287339031  MEOH      773             0.0000000000
     22268      1465  MEOH      HO2            19.4906905107      -13.5906317542       -8.8162842554  MEOH      773             0.0000000000
     22269      1465  MEOH      H1A            17.9403890166      -11.9158088200       -8.5978231324  MEOH      773             0.0000000000
     22270      1465  MEOH      H1B            16.7088951654      -13.0082396474       -9.3322214012  MEOH      773             0.0000000000
     22271      1465  MEOH      H1C            18.0895611912      -12.4752768914      -10.3371775779  MEOH      773             0.0000000000
     22272      1465  MEOH      LP1A           18.8514635604      -13.9053923900       -9.0555258480  MEOH      773             0.0000000000
     22273      1465  MEOH      LP1B           18.4112757952      -14.0203430085       -8.5805835499  MEOH      773             0.0000000000
     22274      1466  MEOH      C1            -11.5576669391       -4.4231039803        5.7076586598  MEOH      774             0.0000000000
     22275      1466  MEOH      DC1           -11.5621192329       -4.4288319957        5.6703136656  MEOH      774             0.0000000000
     22276      1466  MEOH      O1            -10.3010143085       -4.0467325774        5.1451409457  MEOH      774             0.0000000000
     22277      1466  MEOH      DO1           -10.3055772421       -4.0601614092        5.1207984922  MEOH      774             0.0000000000
     22278      1466  MEOH      HO1            -9.6934599669       -4.8004467759        5.2059079513  MEOH      774             0.0000000000
     22279      1466  MEOH      HO2           -10.4757741476       -3.5492175236        4.3309924515  MEOH      774             0.0000000000
     22280      1466  MEOH      H1A           -12.0846863219       -3.5321301043        6.1110655550  MEOH      774             0.0000000000
     22281      1466  MEOH      H1B           -11.3692980535       -5.1114656085        6.5591258827  MEOH      774             0.0000000000
     22282      1466  MEOH      H1C           -12.1914616161       -4.9316139409        4.9500024520  MEOH      774             0.0000000000
     22283      1466  MEOH      LP1A          -10.2983244727       -4.1148345168        4.8018409448  MEOH      774             0.0000000000
     22284      1466  MEOH      LP1B          -10.0970765375       -3.9050488771        5.3917886999  MEOH      774             0.0000000000
     22285      1467  MEOH      C1            -21.4410157079       -6.3470988674       23.6619250547  MEOH      775             0.0000000000
     22286      1467  MEOH      DC1           -21.4666019913       -6.3598685453       23.6720795547  MEOH      775             0.0000000000
     22287      1467  MEOH      O1            -22.6566378237       -6.9142524392       24.1611408205  MEOH      775             0.0000000000
     22288      1467  MEOH      DO1           -22.6766587077       -6.9171463243       24.1733539694  MEOH      775             0.0000000000
     22289      1467  MEOH      HO1           -23.3069944160       -6.7805848407       23.4539850547  MEOH      775             0.0000000000
     22290      1467  MEOH      HO2           -22.4298186739       -7.8184448751       24.4292622705  MEOH      775             0.0000000000
     22291      1467  MEOH      H1A           -20.6021236299       -6.5241321034       24.3684944532  MEOH      775             0.0000000000
     22292      1467  MEOH      H1B           -21.5488917917       -5.2512436238       23.5143275030  MEOH      775             0.0000000000
     22293      1467  MEOH      H1C           -21.1960773063       -6.8005732246       22.6777059797  MEOH      775             0.0000000000
     22294      1467  MEOH      LP1A          -22.6736129466       -7.2536658735       24.0774128933  MEOH      775             0.0000000000
     22295      1467  MEOH      LP1B          -22.8376594802       -6.6725733128       24.3381220617  MEOH      775             0.0000000000
     22296      1468  MEOH      C1             13.5275267191       18.9429475041      -14.0919911245  MEOH      776             0.0000000000
     22297      1468  MEOH      DC1            13.5299665160       18.9308016772      -14.0898996080  MEOH      776             0.0000000000
     22298      1468  MEOH      O1             12.1035295517       18.8663014567      -14.1393528912  MEOH      776             0.0000000000
     22299      1468  MEOH      DO1            12.1085041313       18.8590607798      -14.1350926576  MEOH      776             0.0000000000
     22300      1468  MEOH      HO1            11.7677480774       19.7684065007      -14.0195309698  MEOH      776             0.0000000000
     22301      1468  MEOH      HO2            11.8976018613       18.3894614426      -14.9585704370  MEOH      776             0.0000000000
     22302      1468  MEOH      H1A            13.9618992243       17.9313565827      -14.2414077723  MEOH      776             0.0000000000
     22303      1468  MEOH      H1B            13.8760265910       19.3346959271      -13.1125004336  MEOH      776             0.0000000000
     22304      1468  MEOH      H1C            13.8810558819       19.6306341311      -14.8897537675  MEOH      776             0.0000000000
     22305      1468  MEOH      LP1A           11.9927243026       18.9005263160      -14.4695813815  MEOH      776             0.0000000000
     22306      1468  MEOH      LP1B           11.9760624934       18.8078672689      -13.8186698783  MEOH      776             0.0000000000
     22307      1469  MEOH      C1             22.0654193393      -33.8141732009       26.3368856846  MEOH      777             0.0000000000
     22308      1469  MEOH      DC1            22.0704378048      -33.8157996581       26.3530824017  MEOH      777             0.0000000000
     22309      1469  MEOH      O1             21.8843274954      -33.5682952891       24.9488042925  MEOH      777             0.0000000000
     22310      1469  MEOH      DO1            21.8903466800      -33.5663235149       24.9615786911  MEOH      777             0.0000000000
     22311      1469  MEOH      HO1            21.0682450875      -33.0592260913       24.8232731992  MEOH      777             0.0000000000
     22312      1469  MEOH      HO2            22.7371463021      -33.2401033554       24.6233966424  MEOH      777             0.0000000000
     22313      1469  MEOH      H1A            22.8702027524      -34.5732593130       26.4390274143  MEOH      777             0.0000000000
     22314      1469  MEOH      H1B            21.1290175092      -34.2220316800       26.7740630784  MEOH      777             0.0000000000
     22315      1469  MEOH      H1C            22.3434411567      -32.8796414508       26.8694974368  MEOH      777             0.0000000000
     22316      1469  MEOH      LP1A           22.0443318338      -33.2705156789       24.8581074599  MEOH      777             0.0000000000
     22317      1469  MEOH      LP1B           21.7035270038      -33.8303448625       24.8034041435  MEOH      777             0.0000000000
     22318      1470  MEOH      C1            -10.3559435947      -11.4292870974       25.1808995819  MEOH      778             0.0000000000
     22319      1470  MEOH      DC1           -10.3492383036      -11.4468003147       25.1776387290  MEOH      778             0.0000000000
     22320      1470  MEOH      O1             -9.0159922546      -11.7495876598       24.7950281730  MEOH      778             0.0000000000
     22321      1470  MEOH      DO1            -9.0147449035      -11.7640070189       24.7868126770  MEOH      778             0.0000000000
     22322      1470  MEOH      HO1            -8.4447432631      -11.0865101430       25.2132419895  MEOH      778             0.0000000000
     22323      1470  MEOH      HO2            -8.8971567444      -12.6936352043       24.9835814991  MEOH      778             0.0000000000
     22324      1470  MEOH      H1A           -11.0768279361      -12.0699618309       24.6293720186  MEOH      778             0.0000000000
     22325      1470  MEOH      H1B           -10.5728693045      -10.3664458217       24.9408315518  MEOH      778             0.0000000000
     22326      1470  MEOH      H1C           -10.4943950692      -11.5860192346       26.2720399158  MEOH      778             0.0000000000
     22327      1470  MEOH      LP1A           -8.8757111042      -11.9737116044       25.0243525204  MEOH      778             0.0000000000
     22328      1470  MEOH      LP1B           -8.9359324649      -11.5879984081       24.4950626019  MEOH      778             0.0000000000
     22329      1471  MEOH      C1             17.7507103578       26.2517415787      -20.6982212960  MEOH      779             0.0000000000
     22330      1471  MEOH      DC1            17.7539588013       26.2548696000      -20.7030853936  MEOH      779             0.0000000000
     22331      1471  MEOH      O1             16.9707619931       27.4268672904      -20.9022250189  MEOH      779             0.0000000000
     22332      1471  MEOH      DO1            16.9699887999       27.4321477988      -20.9062690601  MEOH      779             0.0000000000
     22333      1471  MEOH      HO1            16.1510401372       27.3059254409      -20.3979144514  MEOH      779             0.0000000000
     22334      1471  MEOH      HO2            17.5632253372       28.1712381329      -20.7130181619  MEOH      779             0.0000000000
     22335      1471  MEOH      H1A            18.6603599140       26.2770768141      -21.3355727004  MEOH      779             0.0000000000
     22336      1471  MEOH      H1B            17.1466033869       25.3540421918      -20.9502363335  MEOH      779             0.0000000000
     22337      1471  MEOH      H1C            18.0625005963       26.1988853215      -19.6331794831  MEOH      779             0.0000000000
     22338      1471  MEOH      LP1A           17.0503408608       27.6668671424      -20.6602182527  MEOH      779             0.0000000000
     22339      1471  MEOH      LP1B           16.7684035159       27.3885998427      -21.1852208654  MEOH      779             0.0000000000
     22340      1472  MEOH      C1            -11.4794238360       28.3161533052      -36.8974703016  MEOH      780             0.0000000000
     22341      1472  MEOH      DC1           -11.4793689622       28.3032137635      -36.9104973045  MEOH      780             0.0000000000
     22342      1472  MEOH      O1            -11.4125097613       27.4572249285      -35.7557340477  MEOH      780             0.0000000000
     22343      1472  MEOH      DO1           -11.4277674229       27.4360369326      -35.7748960280  MEOH      780             0.0000000000
     22344      1472  MEOH      HO1           -11.9946068202       27.8090488995      -35.0641540388  MEOH      780             0.0000000000
     22345      1472  MEOH      HO2           -11.4728640546       26.5448094044      -36.0793932368  MEOH      780             0.0000000000
     22346      1472  MEOH      H1A           -10.5902309698       28.1382519240      -37.5393489078  MEOH      780             0.0000000000
     22347      1472  MEOH      H1B           -11.4789234427       29.3788892451      -36.5735674245  MEOH      780             0.0000000000
     22348      1472  MEOH      H1C           -12.4048943439       28.1186526211      -37.4795517562  MEOH      780             0.0000000000
     22349      1472  MEOH      LP1A          -11.6525680992       27.2039111610      -35.7822694881  MEOH      780             0.0000000000
     22350      1472  MEOH      LP1B          -11.1537876113       27.5600115394      -35.5436072890  MEOH      780             0.0000000000
     22351      1473  MEOH      C1             23.7845501806       16.8550867468       35.5599801000  MEOH      781             0.0000000000
     22352      1473  MEOH      DC1            23.7812515833       16.8548379787       35.5560448279  MEOH      781             0.0000000000
     22353      1473  MEOH      O1             22.5769155850       16.3495752419       34.9797580640  MEOH      781             0.0000000000
     22354      1473  MEOH      DO1            22.5784165439       16.3540971267       34.9771412934  MEOH      781             0.0000000000
     22355      1473  MEOH      HO1            21.8343299177       16.6087910901       35.5474495923  MEOH      781             0.0000000000
     22356      1473  MEOH      HO2            22.5930683482       16.6167180716       34.0474095258  MEOH      781             0.0000000000
     22357      1473  MEOH      H1A            24.6604433539       16.4661269623       34.9979814916  MEOH      781             0.0000000000
     22358      1473  MEOH      H1B            23.8852794319       16.5270422179       36.6166547922  MEOH      781             0.0000000000
     22359      1473  MEOH      H1C            23.7946597462       17.9655693365       35.5276193763  MEOH      781             0.0000000000
     22360      1473  MEOH      LP1A           22.4449334493       16.5834311538       34.7552761531  MEOH      781             0.0000000000
     22361      1473  MEOH      LP1B           22.5130464743       16.0266303106       35.0986164167  MEOH      781             0.0000000000
     22362      1474  MEOH      C1            -21.6381216482      -15.1205969643      -36.7878376369  MEOH      782             0.0000000000
     22363      1474  MEOH      DC1           -21.6405625245      -15.1267084988      -36.7831504880  MEOH      782             0.0000000000
     22364      1474  MEOH      O1            -20.8769281368      -15.7141674380      -35.7348607836  MEOH      782             0.0000000000
     22365      1474  MEOH      DO1           -20.8748195552      -15.6871180838      -35.7167145356  MEOH      782             0.0000000000
     22366      1474  MEOH      HO1           -21.4756887047      -16.3365447231      -35.2932361716  MEOH      782             0.0000000000
     22367      1474  MEOH      HO2           -20.1063741888      -16.1046670648      -36.1760598936  MEOH      782             0.0000000000
     22368      1474  MEOH      H1A           -20.9798543245      -14.5303209171      -37.4605777938  MEOH      782             0.0000000000
     22369      1474  MEOH      H1B           -22.3926010397      -14.4372425552      -36.3427437136  MEOH      782             0.0000000000
     22370      1474  MEOH      H1C           -22.1431262581      -15.9062175636      -37.3895781278  MEOH      782             0.0000000000
     22371      1474  MEOH      LP1A          -20.7115732891      -15.9992479493      -35.8527033752  MEOH      782             0.0000000000
     22372      1474  MEOH      LP1B          -20.9056000893      -15.5222689305      -35.4435656035  MEOH      782             0.0000000000
     22373      1475  MEOH      C1            -17.2393850041       35.1569723974       15.2902062448  MEOH      783             0.0000000000
     22374      1475  MEOH      DC1           -17.2389973161       35.1481815008       15.2868694105  MEOH      783             0.0000000000
     22375      1475  MEOH      O1            -17.4447927329       36.3509637077       16.0466046994  MEOH      783             0.0000000000
     22376      1475  MEOH      DO1           -17.4472248798       36.3444018739       16.0444141869  MEOH      783             0.0000000000
     22377      1475  MEOH      HO1           -16.8618481014       36.3234658520       16.8214075289  MEOH      783             0.0000000000
     22378      1475  MEOH      HO2           -17.3793414146       37.0840118348       15.4147371744  MEOH      783             0.0000000000
     22379      1475  MEOH      H1A           -17.9512646740       35.1353360551       14.4375162631  MEOH      783             0.0000000000
     22380      1475  MEOH      H1B           -17.4073938468       34.2636518169       15.9290116686  MEOH      783             0.0000000000
     22381      1475  MEOH      H1C           -16.2035088230       35.1399373286       14.8889689764  MEOH      783             0.0000000000
     22382      1475  MEOH      LP1A          -17.2295229538       36.6027543739       15.9336428358  MEOH      783             0.0000000000
     22383      1475  MEOH      LP1B          -17.7023018648       36.3028207377       16.2787066198  MEOH      783             0.0000000000
     22384      1476  MEOH      C1            -26.8249009216        9.5330581191       28.1828446865  MEOH      784             0.0000000000
     22385      1476  MEOH      DC1           -26.8414691211        9.5406424434       28.1869514456  MEOH      784             0.0000000000
     22386      1476  MEOH      O1            -25.6134179991        9.4256936296       27.4514860134  MEOH      784             0.0000000000
     22387      1476  MEOH      DO1           -25.6254219109        9.4281545781       27.4520565214  MEOH      784             0.0000000000
     22388      1476  MEOH      HO1           -25.7108044682        8.7258246466       26.7869566435  MEOH      784             0.0000000000
     22389      1476  MEOH      HO2           -25.3584350536       10.3241771893       27.1895490164  MEOH      784             0.0000000000
     22390      1476  MEOH      H1A           -26.6919095582       10.2639274113       29.0089587071  MEOH      784             0.0000000000
     22391      1476  MEOH      H1B           -27.0965097865        8.5473989863       28.6176155453  MEOH      784             0.0000000000
     22392      1476  MEOH      H1C           -27.6211887914        9.8868232005       27.4935719568  MEOH      784             0.0000000000
     22393      1476  MEOH      LP1A          -25.6201003952        9.6419603237       27.1763786478  MEOH      784             0.0000000000
     22394      1476  MEOH      LP1B          -25.3978118136        9.1997681712       27.6095102520  MEOH      784             0.0000000000
     22395      1477  MEOH      C1             16.4625497122       -0.5918915141      -34.8977475365  MEOH      785             0.0000000000
     22396      1477  MEOH      DC1            16.4680088785       -0.6042150731      -34.8942879123  MEOH      785             0.0000000000
     22397      1477  MEOH      O1             15.8597899860        0.4369633221      -35.6832619868  MEOH      785             0.0000000000
     22398      1477  MEOH      DO1            15.8584820428        0.4281622820      -35.6823606450  MEOH      785             0.0000000000
     22399      1477  MEOH      HO1            15.9194115693        0.1793632241      -36.6165290741  MEOH      785             0.0000000000
     22400      1477  MEOH      HO2            15.0013018953        0.6215829467      -35.2711772939  MEOH      785             0.0000000000
     22401      1477  MEOH      H1A            16.5104483703       -0.2647896809      -33.8370726997  MEOH      785             0.0000000000
     22402      1477  MEOH      H1B            17.4928399190       -0.7887671609      -35.2638937799  MEOH      785             0.0000000000
     22403      1477  MEOH      H1C            15.8527257431       -1.5183530864      -34.9618153327  MEOH      785             0.0000000000
     22404      1477  MEOH      LP1A           15.5175779509        0.3739015671      -35.7208670144  MEOH      785             0.0000000000
     22405      1477  MEOH      LP1B           16.0986039700        0.6784570959      -35.7678116066  MEOH      785             0.0000000000
     22406      1478  MEOH      C1             24.4077219724        8.9109274769      -11.7342415196  MEOH      786             0.0000000000
     22407      1478  MEOH      DC1            24.3865666269        8.9082521816      -11.7383385235  MEOH      786             0.0000000000
     22408      1478  MEOH      O1             23.1392899985        9.2480356987      -12.2962379648  MEOH      786             0.0000000000
     22409      1478  MEOH      DO1            23.1123412300        9.2404210017      -12.3008615222  MEOH      786             0.0000000000
     22410      1478  MEOH      HO1            22.4977669851        9.0596618424      -11.5934837307  MEOH      786             0.0000000000
     22411      1478  MEOH      HO2            23.2447556307       10.1568704301      -12.6184125014  MEOH      786             0.0000000000
     22412      1478  MEOH      H1A            25.2114397723        9.1032237299      -12.4767917531  MEOH      786             0.0000000000
     22413      1478  MEOH      H1B            24.4286609558        7.8375424154      -11.4483620519  MEOH      786             0.0000000000
     22414      1478  MEOH      H1C            24.6095531843        9.5391476883      -10.8404157377  MEOH      786             0.0000000000
     22415      1478  MEOH      LP1A           23.0677054500        9.5853763611      -12.2364305244  MEOH      786             0.0000000000
     22416      1478  MEOH      LP1B           23.0033205548        8.9702504573      -12.4600905510  MEOH      786             0.0000000000
     22417      1479  MEOH      C1            -18.7215991197        2.8277259581        2.9074994731  MEOH      787             0.0000000000
     22418      1479  MEOH      DC1           -18.7351455011        2.8141850561        2.8926417494  MEOH      787             0.0000000000
     22419      1479  MEOH      O1            -17.9306603068        2.5010499819        1.7641497517  MEOH      787             0.0000000000
     22420      1479  MEOH      DO1           -17.9472398969        2.4898961244        1.7505689254  MEOH      787             0.0000000000
     22421      1479  MEOH      HO1           -17.2448243749        3.1856290802        1.7207846238  MEOH      787             0.0000000000
     22422      1479  MEOH      HO2           -17.6579598239        1.5798417501        1.8979774032  MEOH      787             0.0000000000
     22423      1479  MEOH      H1A           -19.5141753764        2.0657372859        3.0672403279  MEOH      787             0.0000000000
     22424      1479  MEOH      H1B           -19.2019299180        3.8193697468        2.7652113057  MEOH      787             0.0000000000
     22425      1479  MEOH      H1C           -18.0754396117        2.8600621472        3.8106900742  MEOH      787             0.0000000000
     22426      1479  MEOH      LP1A          -17.6714644860        2.2844523087        1.8558174911  MEOH      787             0.0000000000
     22427      1479  MEOH      LP1B          -18.0639277346        2.6537540164        1.4788056252  MEOH      787             0.0000000000
     22428      1480  MEOH      C1              4.7733482094       35.9633069147      -25.8974497459  MEOH      788             0.0000000000
     22429      1480  MEOH      DC1             4.7659474311       35.9619844039      -25.8937596044  MEOH      788             0.0000000000
     22430      1480  MEOH      O1              3.7542729680       36.3878687926      -24.9964273817  MEOH      788             0.0000000000
     22431      1480  MEOH      DO1             3.7496333806       36.3868605461      -24.9930690117  MEOH      788             0.0000000000
     22432      1480  MEOH      HO1             4.1023141441       36.2706564526      -24.0986364218  MEOH      788             0.0000000000
     22433      1480  MEOH      HO2             3.4856098715       37.2670771379      -25.3058022775  MEOH      788             0.0000000000
     22434      1480  MEOH      H1A             4.4033918928       36.0278682717      -26.9430525173  MEOH      788             0.0000000000
     22435      1480  MEOH      H1B             5.0687847169       34.9121165208      -25.6924204163  MEOH      788             0.0000000000
     22436      1480  MEOH      H1C             5.6669113726       36.6153884815      -25.7942242398  MEOH      788             0.0000000000
     22437      1480  MEOH      LP1A            3.7863635723       36.7304304761      -24.9322270225  MEOH      788             0.0000000000
     22438      1480  MEOH      LP1B            3.5441469110       36.1191354121      -24.9181368308  MEOH      788             0.0000000000
     22439      1481  MEOH      C1             -8.3199504756        0.1794031955        3.1135753891  MEOH      789             0.0000000000
     22440      1481  MEOH      DC1            -8.3164160274        0.1956099148        3.1219517298  MEOH      789             0.0000000000
     22441      1481  MEOH      O1             -8.1252956512       -1.2310952580        3.2520806918  MEOH      789             0.0000000000
     22442      1481  MEOH      DO1            -8.1286283842       -1.2227838170        3.2545136533  MEOH      789             0.0000000000
     22443      1481  MEOH      HO1            -8.5979996641       -1.6700407691        2.5276652348  MEOH      789             0.0000000000
     22444      1481  MEOH      HO2            -7.1696838390       -1.3588430286        3.3587885742  MEOH      789             0.0000000000
     22445      1481  MEOH      H1A            -7.8453404290        0.7029248817        3.9708917530  MEOH      789             0.0000000000
     22446      1481  MEOH      H1B            -9.3995329386        0.4399080273        3.0825924834  MEOH      789             0.0000000000
     22447      1481  MEOH      H1C            -7.8487750790        0.5395363627        2.1740974232  MEOH      789             0.0000000000
     22448      1481  MEOH      LP1A           -7.8362029152       -1.3294081484        3.0810252458  MEOH      789             0.0000000000
     22449      1481  MEOH      LP1B           -8.3754278887       -1.3670334232        3.4556849133  MEOH      789             0.0000000000
     22450      1482  MEOH      C1              7.1478184946      -19.2834996485       12.8793257255  MEOH      790             0.0000000000
     22451      1482  MEOH      DC1             7.1601342539      -19.2784375488       12.8723904835  MEOH      790             0.0000000000
     22452      1482  MEOH      O1              6.0789177430      -18.4480281039       13.2949285498  MEOH      790             0.0000000000
     22453      1482  MEOH      DO1             6.0895064340      -18.4480551853       13.3101379445  MEOH      790             0.0000000000
     22454      1482  MEOH      HO1             5.6985624173      -18.0624755965       12.4902055601  MEOH      790             0.0000000000
     22455      1482  MEOH      HO2             5.5324520294      -18.9995020404       13.8764366944  MEOH      790             0.0000000000
     22456      1482  MEOH      H1A             7.6519431354      -19.7538569368       13.7504992833  MEOH      790             0.0000000000
     22457      1482  MEOH      H1B             7.8886131767      -18.6956704196       12.2962296459  MEOH      790             0.0000000000
     22458      1482  MEOH      H1C             6.7332661079      -20.0983569466       12.2480770402  MEOH      790             0.0000000000
     22459      1482  MEOH      LP1A            5.7821758446      -18.6328386386       13.3119377236  MEOH      790             0.0000000000
     22460      1482  MEOH      LP1B            6.1974149951      -18.1249886714       13.3589904441  MEOH      790             0.0000000000
     22461      1483  MEOH      C1             23.2794138745       -1.9050788752      -25.2262756780  MEOH      791             0.0000000000
     22462      1483  MEOH      DC1            23.2643759981       -1.8931506030      -25.2295196663  MEOH      791             0.0000000000
     22463      1483  MEOH      O1             21.9255123051       -1.7057884720      -25.6390140863  MEOH      791             0.0000000000
     22464      1483  MEOH      DO1            21.9100795435       -1.7032430701      -25.6248358474  MEOH      791             0.0000000000
     22465      1483  MEOH      HO1            21.4480363534       -2.5420137334      -25.5222064281  MEOH      791             0.0000000000
     22466      1483  MEOH      HO2            21.6324811233       -0.8424247919      -25.3079009901  MEOH      791             0.0000000000
     22467      1483  MEOH      H1A            23.9149765061       -1.1492900689      -25.7353576181  MEOH      791             0.0000000000
     22468      1483  MEOH      H1B            23.6425308158       -2.9064500914      -25.5420648093  MEOH      791             0.0000000000
     22469      1483  MEOH      H1C            23.3809207779       -1.7965009646      -24.1252633319  MEOH      791             0.0000000000
     22470      1483  MEOH      LP1A           21.7329894340       -1.5949755586      -25.3685414586  MEOH      791             0.0000000000
     22471      1483  MEOH      LP1B           21.8936474670       -1.7722827678      -25.9811589982  MEOH      791             0.0000000000
     22472      1484  MEOH      C1             -9.9801528207       15.7677363035      -28.3108007424  MEOH      792             0.0000000000
     22473      1484  MEOH      DC1            -9.9848278667       15.7842456241      -28.3206821951  MEOH      792             0.0000000000
     22474      1484  MEOH      O1             -8.8068850619       15.1493528623      -28.8126205441  MEOH      792             0.0000000000
     22475      1484  MEOH      DO1            -8.8099686484       15.1598129693      -28.8079388258  MEOH      792             0.0000000000
     22476      1484  MEOH      HO1            -8.9036297445       14.9990007536      -29.7660012187  MEOH      792             0.0000000000
     22477      1484  MEOH      HO2            -8.0606547522       15.6725848634      -28.4805533853  MEOH      792             0.0000000000
     22478      1484  MEOH      H1A            -9.8798978761       15.8202042704      -27.2055781135  MEOH      792             0.0000000000
     22479      1484  MEOH      H1B           -10.8739941399       15.1620237790      -28.5724895534  MEOH      792             0.0000000000
     22480      1484  MEOH      H1C           -10.0662069485       16.8001416376      -28.7121172198  MEOH      792             0.0000000000
     22481      1484  MEOH      LP1A           -8.5752117789       15.3931161153      -28.9096100612  MEOH      792             0.0000000000
     22482      1484  MEOH      LP1B           -8.8358998344       14.8013032695      -28.7898252832  MEOH      792             0.0000000000
     22483      1485  MEOH      C1            -15.4604279080       34.4460475380      -30.5572510834  MEOH      793             0.0000000000
     22484      1485  MEOH      DC1           -15.4583332399       34.4461393971      -30.5578809374  MEOH      793             0.0000000000
     22485      1485  MEOH      O1            -16.5970015044       34.6384246222      -29.7118779773  MEOH      793             0.0000000000
     22486      1485  MEOH      DO1           -16.5931638438       34.6413783390      -29.7066666312  MEOH      793             0.0000000000
     22487      1485  MEOH      HO1           -16.2999513346       34.5490517762      -28.7928166672  MEOH      793             0.0000000000
     22488      1485  MEOH      HO2           -17.0283231489       35.4505073460      -30.0207198279  MEOH      793             0.0000000000
     22489      1485  MEOH      H1A           -15.7927790077       34.4006076982      -31.6164011997  MEOH      793             0.0000000000
     22490      1485  MEOH      H1B           -14.9483913461       33.4952519191      -30.2962391080  MEOH      793             0.0000000000
     22491      1485  MEOH      H1C           -14.7471715081       35.2895109699      -30.4382731568  MEOH      793             0.0000000000
     22492      1485  MEOH      LP1A          -16.6326520647       34.9779309537      -29.6346478767  MEOH      793             0.0000000000
     22493      1485  MEOH      LP1B          -16.7583137302       34.3327420552      -29.6567732221  MEOH      793             0.0000000000
     22494      1486  MEOH      C1            -17.1475067608      -25.8198897728      -36.0810969481  MEOH      794             0.0000000000
     22495      1486  MEOH      DC1           -17.1453579344      -25.8286203813      -36.0698971880  MEOH      794             0.0000000000
     22496      1486  MEOH      O1            -16.3904890917      -24.6147750018      -36.1661794137  MEOH      794             0.0000000000
     22497      1486  MEOH      DO1           -16.3778972542      -24.6305742444      -36.1478217923  MEOH      794             0.0000000000
     22498      1486  MEOH      HO1           -15.8052068605      -24.7006207593      -36.9349285380  MEOH      794             0.0000000000
     22499      1486  MEOH      HO2           -17.0584176872      -23.9128516147      -36.2117310318  MEOH      794             0.0000000000
     22500      1486  MEOH      H1A           -17.9608603300      -25.6932642225      -35.3349448566  MEOH      794             0.0000000000
     22501      1486  MEOH      H1B           -16.4991090813      -26.6692342954      -35.7769336173  MEOH      794             0.0000000000
     22502      1486  MEOH      H1C           -17.6052908825      -26.0411547539      -37.0689210752  MEOH      794             0.0000000000
     22503      1486  MEOH      LP1A          -16.5618279874      -24.3792278374      -36.3602425894  MEOH      794             0.0000000000
     22504      1486  MEOH      LP1B          -16.0974034068      -24.6439152928      -35.9770984132  MEOH      794             0.0000000000
     22505      1487  MEOH      C1            -10.6142897716      -26.4779013403       34.2002681523  MEOH      795             0.0000000000
     22506      1487  MEOH      DC1           -10.6001017197      -26.4700830020       34.1973568125  MEOH      795             0.0000000000
     22507      1487  MEOH      O1            -10.7194780946      -27.8829476047       33.9613581113  MEOH      795             0.0000000000
     22508      1487  MEOH      DO1           -10.6947752501      -27.8762873489       33.9554006169  MEOH      795             0.0000000000
     22509      1487  MEOH      HO1           -11.2339967613      -28.0344142237       33.1531326440  MEOH      795             0.0000000000
     22510      1487  MEOH      HO2            -9.8448379916      -28.2702780500       34.1222301610  MEOH      795             0.0000000000
     22511      1487  MEOH      H1A           -10.3174137181      -26.3067459223       35.2570989958  MEOH      795             0.0000000000
     22512      1487  MEOH      H1B           -11.5975199879      -25.9901187027       34.0280838265  MEOH      795             0.0000000000
     22513      1487  MEOH      H1C            -9.8554304154      -26.0279967840       33.5249612824  MEOH      795             0.0000000000
     22514      1487  MEOH      LP1A          -10.4487374799      -27.9921430123       33.7682884800  MEOH      795             0.0000000000
     22515      1487  MEOH      LP1B          -11.0016829339      -28.0112086879       34.1238681825  MEOH      795             0.0000000000
     22516      1488  MEOH      C1            -27.2128144830        8.2451134809       23.9085587641  MEOH      796             0.0000000000
     22517      1488  MEOH      DC1           -27.2228299265        8.2500546361       23.9150148016  MEOH      796             0.0000000000
     22518      1488  MEOH      O1            -28.0755884392        7.1077801121       24.0023220780  MEOH      796             0.0000000000
     22519      1488  MEOH      DO1           -28.0811588812        7.1092616937       24.0154057875  MEOH      796             0.0000000000
     22520      1488  MEOH      HO1           -28.4859795658        6.9859874448       23.1318936371  MEOH      796             0.0000000000
     22521      1488  MEOH      HO2           -27.5209853983        6.3987880917       24.3637716347  MEOH      796             0.0000000000
     22522      1488  MEOH      H1A           -26.7150009786        8.4279812630       24.8848077537  MEOH      796             0.0000000000
     22523      1488  MEOH      H1B           -27.7959731294        9.1506074898       23.6359278909  MEOH      796             0.0000000000
     22524      1488  MEOH      H1C           -26.4362900222        8.0713608014       23.1332260810  MEOH      796             0.0000000000
     22525      1488  MEOH      LP1A          -27.8978697624        6.8160903267       23.9259470753  MEOH      796             0.0000000000
     22526      1488  MEOH      LP1B          -28.3947529682        7.2078177210       24.1054068988  MEOH      796             0.0000000000
     22527      1489  MEOH      C1             19.1538770622      -19.5889400880       32.9719481158  MEOH      797             0.0000000000
     22528      1489  MEOH      DC1            19.1677281294      -19.5944758812       32.9802752996  MEOH      797             0.0000000000
     22529      1489  MEOH      O1             19.6785676829      -19.4383465374       31.6565644229  MEOH      797             0.0000000000
     22530      1489  MEOH      DO1            19.6996359370      -19.4472480223       31.6670628637  MEOH      797             0.0000000000
     22531      1489  MEOH      HO1            19.0176345835      -18.9542863331       31.1371867592  MEOH      797             0.0000000000
     22532      1489  MEOH      HO2            20.5758232908      -19.0843640431       31.7591742072  MEOH      797             0.0000000000
     22533      1489  MEOH      H1A            19.8224279626      -20.2502712956       33.5635575546  MEOH      797             0.0000000000
     22534      1489  MEOH      H1B            18.1390672317      -20.0394091209       32.9324556044  MEOH      797             0.0000000000
     22535      1489  MEOH      H1C            19.1007538160      -18.5920397224       33.4594812776  MEOH      797             0.0000000000
     22536      1489  MEOH      LP1A           19.8666219913      -19.1438987757       31.6356815903  MEOH      797             0.0000000000
     22537      1489  MEOH      LP1B           19.5882208629      -19.7130996383       31.4594649920  MEOH      797             0.0000000000
     22538      1490  MEOH      C1            -35.1869333213       -1.7976681228       25.7585524623  MEOH      798             0.0000000000
     22539      1490  MEOH      DC1           -35.1939921544       -1.7944066262       25.7634255525  MEOH      798             0.0000000000
     22540      1490  MEOH      O1            -34.7408320502       -2.0332541942       24.4198048620  MEOH      798             0.0000000000
     22541      1490  MEOH      DO1           -34.7336143622       -2.0260663210       24.4245493002  MEOH      798             0.0000000000
     22542      1490  MEOH      HO1           -34.5676852724       -2.9834002938       24.3295686010  MEOH      798             0.0000000000
     22543      1490  MEOH      HO2           -35.4091806548       -1.6232341471       23.8487587122  MEOH      798             0.0000000000
     22544      1490  MEOH      H1A           -35.3610077462       -0.7097987589       25.9019377536  MEOH      798             0.0000000000
     22545      1490  MEOH      H1B           -34.4177290931       -2.1363161737       26.4851633310  MEOH      798             0.0000000000
     22546      1490  MEOH      H1C           -36.1372229369       -2.3426063535       25.9437900708  MEOH      798             0.0000000000
     22547      1490  MEOH      LP1A          -35.0151176587       -2.0950108207       24.2113497731  MEOH      798             0.0000000000
     22548      1490  MEOH      LP1B          -34.3929015542       -1.9997217287       24.4019178923  MEOH      798             0.0000000000
     22549      1491  MEOH      C1            -34.2875446511       30.1098237944      -15.6945340241  MEOH      799             0.0000000000
     22550      1491  MEOH      DC1           -34.2811321698       30.1240899017      -15.6995408851  MEOH      799             0.0000000000
     22551      1491  MEOH      O1            -33.8494385824       31.4654824912      -15.8276654576  MEOH      799             0.0000000000
     22552      1491  MEOH      DO1           -33.8447620302       31.4791065256      -15.8415554566  MEOH      799             0.0000000000
     22553      1491  MEOH      HO1           -34.4976702799       31.9943158638      -15.3367164470  MEOH      799             0.0000000000
     22554      1491  MEOH      HO2           -32.9118086001       31.4797999830      -15.5795827585  MEOH      799             0.0000000000
     22555      1491  MEOH      H1A           -33.6301276266       29.4412011858      -16.2904095674  MEOH      799             0.0000000000
     22556      1491  MEOH      H1B           -35.3278887562       29.9928946940      -16.0664651076  MEOH      799             0.0000000000
     22557      1491  MEOH      H1C           -34.2591130741       29.7999325962      -14.6280069069  MEOH      799             0.0000000000
     22558      1491  MEOH      LP1A          -33.6275042782       31.5455008111      -15.5691268085  MEOH      799             0.0000000000
     22559      1491  MEOH      LP1B          -33.9891490513       31.6087857417      -16.1147981156  MEOH      799             0.0000000000
     22560      1492  MEOH      C1            -29.9920758349      -21.5619248480       -7.1542922719  MEOH      800             0.0000000000
     22561      1492  MEOH      DC1           -29.9970518765      -21.5614146540       -7.1486346345  MEOH      800             0.0000000000
     22562      1492  MEOH      O1            -29.7225984357      -20.9440488609       -8.4144587219  MEOH      800             0.0000000000
     22563      1492  MEOH      DO1           -29.7315562495      -20.9487190341       -8.4102438316  MEOH      800             0.0000000000
     22564      1492  MEOH      HO1           -28.7694205622      -20.7720476902       -8.4670661232  MEOH      800             0.0000000000
     22565      1492  MEOH      HO2           -30.1550997263      -21.4980397265       -9.0829920092  MEOH      800             0.0000000000
     22566      1492  MEOH      H1A           -31.0907643023      -21.6583616256       -7.0204841997  MEOH      800             0.0000000000
     22567      1492  MEOH      H1B           -29.5779850429      -20.9430704403       -6.3297505580  MEOH      800             0.0000000000
     22568      1492  MEOH      H1C           -29.5384181638      -22.5755680534       -7.1219941116  MEOH      800             0.0000000000
     22569      1492  MEOH      LP1A          -29.6596388507      -21.1886960267       -8.6567062294  MEOH      800             0.0000000000
     22570      1492  MEOH      LP1B          -29.7515731479      -20.5964161930       -8.3859632084  MEOH      800             0.0000000000
     22571      1493  MEOH      C1            -16.7353412383       12.1938095453       -9.6798585973  MEOH      801             0.0000000000
     22572      1493  MEOH      DC1           -16.7419370474       12.1962645203       -9.6791691669  MEOH      801             0.0000000000
     22573      1493  MEOH      O1            -15.8630867237       12.9919340815       -8.8773413283  MEOH      801             0.0000000000
     22574      1493  MEOH      DO1           -15.8726046026       13.0016530610       -8.8754834552  MEOH      801             0.0000000000
     22575      1493  MEOH      HO1           -15.2961606165       12.3792789700       -8.3832274717  MEOH      801             0.0000000000
     22576      1493  MEOH      HO2           -15.4389694190       13.6034391043       -9.4995037828  MEOH      801             0.0000000000
     22577      1493  MEOH      H1A           -17.3474840082       12.8455042215      -10.3393252593  MEOH      801             0.0000000000
     22578      1493  MEOH      H1B           -17.4128129130       11.5849529618       -9.0437400614  MEOH      801             0.0000000000
     22579      1493  MEOH      H1C           -16.1400901249       11.5041514876      -10.3157586491  MEOH      801             0.0000000000
     22580      1493  MEOH      LP1A          -15.5728052770       13.0694992878       -9.0568415246  MEOH      801             0.0000000000
     22581      1493  MEOH      LP1B          -16.0121116335       13.0576121742       -8.5675382225  MEOH      801             0.0000000000
     22582      1494  MEOH      C1            -31.4453304141       27.7474582536       24.9888184386  MEOH      802             0.0000000000
     22583      1494  MEOH      DC1           -31.4416043999       27.7371602495       25.0059376810  MEOH      802             0.0000000000
     22584      1494  MEOH      O1            -31.1965952318       28.9506272895       24.2639880368  MEOH      802             0.0000000000
     22585      1494  MEOH      DO1           -31.1921207684       28.9459730004       24.2756372451  MEOH      802             0.0000000000
     22586      1494  MEOH      HO1           -32.0541098312       29.3604318962       24.0700063464  MEOH      802             0.0000000000
     22587      1494  MEOH      HO2           -30.5043109481       29.4250845390       24.7503344049  MEOH      802             0.0000000000
     22588      1494  MEOH      H1A           -30.5100251342       27.1494812523       25.0329607224  MEOH      802             0.0000000000
     22589      1494  MEOH      H1B           -32.2281464794       27.1471633426       24.4777743817  MEOH      802             0.0000000000
     22590      1494  MEOH      H1C           -31.7879486042       28.0032950014       26.0142360776  MEOH      802             0.0000000000
     22591      1494  MEOH      LP1A          -31.1542005264       29.2176722487       24.4862259245  MEOH      802             0.0000000000
     22592      1494  MEOH      LP1B          -31.1859530521       28.8835129404       23.9206479603  MEOH      802             0.0000000000
     22593      1495  MEOH      C1             18.9060806119       34.5232914485       22.4771215597  MEOH      803             0.0000000000
     22594      1495  MEOH      DC1            18.9089057191       34.5187024971       22.4793360067  MEOH      803             0.0000000000
     22595      1495  MEOH      O1             18.3289411438       33.4058489405       23.1150253052  MEOH      803             0.0000000000
     22596      1495  MEOH      DO1            18.3284743706       33.3918661943       23.1155856559  MEOH      803             0.0000000000
     22597      1495  MEOH      HO1            17.7172960270       33.0629342499       22.4448016356  MEOH      803             0.0000000000
     22598      1495  MEOH      HO2            19.0989735874       32.8803805221       23.3830420529  MEOH      803             0.0000000000
     22599      1495  MEOH      H1A            19.6431191283       35.0504589815       23.1199198309  MEOH      803             0.0000000000
     22600      1495  MEOH      H1B            18.1448464850       35.2522764512       22.1258033676  MEOH      803             0.0000000000
     22601      1495  MEOH      H1C            19.4403564963       34.0810046083       21.6092202800  MEOH      803             0.0000000000
     22602      1495  MEOH      LP1A           18.5219093249       33.1202925802       23.0540265660  MEOH      803             0.0000000000
     22603      1495  MEOH      LP1B           18.0443330417       33.5037536677       23.2936671049  MEOH      803             0.0000000000
     22604      1496  MEOH      C1            -31.8422553929       20.8577300264       -0.5880077175  MEOH      804             0.0000000000
     22605      1496  MEOH      DC1           -31.8457955242       20.8657415701       -0.5908491230  MEOH      804             0.0000000000
     22606      1496  MEOH      O1            -33.0835064432       21.0265429237       -1.2732279763  MEOH      804             0.0000000000
     22607      1496  MEOH      DO1           -33.0877584834       21.0302634525       -1.2738317791  MEOH      804             0.0000000000
     22608      1496  MEOH      HO1           -33.0247377971       21.8506750559       -1.7814134500  MEOH      804             0.0000000000
     22609      1496  MEOH      HO2           -33.2424871275       20.1851806512       -1.7290071645  MEOH      804             0.0000000000
     22610      1496  MEOH      H1A           -31.8830645301       19.9208386717        0.0077189011  MEOH      804             0.0000000000
     22611      1496  MEOH      H1B           -31.6675762783       21.7127262658        0.0995892849  MEOH      804             0.0000000000
     22612      1496  MEOH      H1C           -31.0049007058       20.7800496877       -1.3140407016  MEOH      804             0.0000000000
     22613      1496  MEOH      LP1A          -33.0703290867       20.8688195102       -1.5853972927  MEOH      804             0.0000000000
     22614      1496  MEOH      LP1B          -33.3086696064       21.2027758924       -1.0713778073  MEOH      804             0.0000000000
     22615      1497  MEOH      C1              4.7885458711       16.8758232868      -13.0993535867  MEOH      805             0.0000000000
     22616      1497  MEOH      DC1             4.7920833695       16.8837822968      -13.1112898840  MEOH      805             0.0000000000
     22617      1497  MEOH      O1              5.8611537269       15.9391443610      -13.1617316403  MEOH      805             0.0000000000
     22618      1497  MEOH      DO1             5.8705885905       15.9505062207      -13.1793360109  MEOH      805             0.0000000000
     22619      1497  MEOH      HO1             6.2018929407       15.8866084225      -12.2550692096  MEOH      805             0.0000000000
     22620      1497  MEOH      HO2             5.4747191788       15.1358948600      -13.5443000396  MEOH      805             0.0000000000
     22621      1497  MEOH      H1A             4.2376052781       16.8967082707      -14.0638997397  MEOH      805             0.0000000000
     22622      1497  MEOH      H1B             5.1785761960       17.8905221690      -12.8700426098  MEOH      805             0.0000000000
     22623      1497  MEOH      H1C             4.0976216355       16.5706516885      -12.2846051606  MEOH      805             0.0000000000
     22624      1497  MEOH      LP1A            5.7403756760       15.6150883131      -13.1078768332  MEOH      805             0.0000000000
     22625      1497  MEOH      LP1B            6.1602323244       16.1044931503      -13.2373078958  MEOH      805             0.0000000000
     22626      1498  MEOH      C1            -33.2493242166       12.3173637928      -33.7215159061  MEOH      806             0.0000000000
     22627      1498  MEOH      DC1           -33.2437154033       12.3102150210      -33.7277194473  MEOH      806             0.0000000000
     22628      1498  MEOH      O1            -33.8714835501       13.5672418163      -33.4133672249  MEOH      806             0.0000000000
     22629      1498  MEOH      DO1           -33.8679652252       13.5534186521      -33.4179131165  MEOH      806             0.0000000000
     22630      1498  MEOH      HO1           -33.6768435967       14.2142887041      -34.1093166588  MEOH      806             0.0000000000
     22631      1498  MEOH      HO2           -34.7907693989       13.3614288117      -33.1821648560  MEOH      806             0.0000000000
     22632      1498  MEOH      H1A           -33.3525306799       11.6399899734      -32.8469679453  MEOH      806             0.0000000000
     22633      1498  MEOH      H1B           -32.1690063556       12.4649178717      -33.9347343689  MEOH      806             0.0000000000
     22634      1498  MEOH      H1C           -33.7467868789       11.8470457954      -34.5965318392  MEOH      806             0.0000000000
     22635      1498  MEOH      LP1A          -34.1954167667       13.5755445346      -33.5456485013  MEOH      806             0.0000000000
     22636      1498  MEOH      LP1B          -33.6559945262       13.7637267877      -33.2198261786  MEOH      806             0.0000000000
     22637      1499  MEOH      C1             -7.2083461182       -5.3728508828       -9.6674994908  MEOH      807             0.0000000000
     22638      1499  MEOH      DC1            -7.1753770195       -5.3997246415       -9.6402788136  MEOH      807             0.0000000000
     22639      1499  MEOH      O1             -8.0330702682       -4.5244798320      -10.4424059957  MEOH      807             0.0000000000
     22640      1499  MEOH      DO1            -8.0112310286       -4.5468531275      -10.4232963106  MEOH      807             0.0000000000
     22641      1499  MEOH      HO1            -8.9688947625       -4.7253231011      -10.2849433095  MEOH      807             0.0000000000
     22642      1499  MEOH      HO2            -7.6953321599       -3.6248992523      -10.3097871776  MEOH      807             0.0000000000
     22643      1499  MEOH      H1A            -6.1605388471       -5.1810615697       -9.9831540202  MEOH      807             0.0000000000
     22644      1499  MEOH      H1B            -7.4796385664       -6.4298511405       -9.8759985680  MEOH      807             0.0000000000
     22645      1499  MEOH      H1C            -7.3252088693       -5.1337954367       -8.5888352279  MEOH      807             0.0000000000
     22646      1499  MEOH      LP1A           -8.1038511880       -4.2313857519      -10.2646817104  MEOH      807             0.0000000000
     22647      1499  MEOH      LP1B           -8.0925704981       -4.6688608556      -10.7556372882  MEOH      807             0.0000000000
     22648      1500  MEOH      C1             -9.2935284821      -20.3378712157       33.5668428540  MEOH      808             0.0000000000
     22649      1500  MEOH      DC1            -9.2849778098      -20.3490813810       33.5638117051  MEOH      808             0.0000000000
     22650      1500  MEOH      O1            -10.6726197329      -20.6796963836       33.4439011848  MEOH      808             0.0000000000
     22651      1500  MEOH      DO1           -10.6626058899      -20.6890141932       33.4366198125  MEOH      808             0.0000000000
     22652      1500  MEOH      HO1           -10.8588861113      -21.3805062351       34.0881607511  MEOH      808             0.0000000000
     22653      1500  MEOH      HO2           -11.1486473428      -19.8397150616       33.5373308016  MEOH      808             0.0000000000
     22654      1500  MEOH      H1A            -9.0633165607      -19.4366489117       32.9592888795  MEOH      808             0.0000000000
     22655      1500  MEOH      H1B            -8.6478647370      -21.1880567113       33.2592327894  MEOH      808             0.0000000000
     22656      1500  MEOH      H1C            -9.0730654863      -20.1164426792       34.6329978478  MEOH      808             0.0000000000
     22657      1500  MEOH      LP1A          -10.8653670929      -20.4772409914       33.6545199622  MEOH      808             0.0000000000
     22658      1500  MEOH      LP1B          -10.7125890920      -20.9317074743       33.2043331141  MEOH      808             0.0000000000
     22659      1501  MEOH      C1            -36.8485041900       20.4510779321       28.3167197375  MEOH      809             0.0000000000
     22660      1501  MEOH      DC1           -36.8359518578       20.4353270958       28.3223962562  MEOH      809             0.0000000000
     22661      1501  MEOH      O1            -36.5488286460       19.2005599616       28.9470552696  MEOH      809             0.0000000000
     22662      1501  MEOH      DO1           -36.5260987950       19.1718544794       28.9377993801  MEOH      809             0.0000000000
     22663      1501  MEOH      HO1           -36.1371720032       19.4485404636       29.7896373007  MEOH      809             0.0000000000
     22664      1501  MEOH      HO2           -37.3969415579       18.7305634062       28.9736584328  MEOH      809             0.0000000000
     22665      1501  MEOH      H1A           -37.4795216479       20.2948789722       27.4157536711  MEOH      809             0.0000000000
     22666      1501  MEOH      H1B           -35.9105415572       20.9690049058       28.0229532471  MEOH      809             0.0000000000
     22667      1501  MEOH      H1C           -37.4080527745       21.1006198832       29.0233466801  MEOH      809             0.0000000000
     22668      1501  MEOH      LP1A          -36.8216446398       19.0949398677       29.1391901942  MEOH      809             0.0000000000
     22669      1501  MEOH      LP1B          -36.2303281900       19.0915284481       28.8512973006  MEOH      809             0.0000000000
     22670      1502  MEOH      C1             18.5069471115      -12.9347873394       36.7150985447  MEOH      810             0.0000000000
     22671      1502  MEOH      DC1            18.5206522681      -12.9418262470       36.7241296205  MEOH      810             0.0000000000
     22672      1502  MEOH      O1             19.6614421974      -13.6815888189       36.3039087523  MEOH      810             0.0000000000
     22673      1502  MEOH      DO1            19.6694692647      -13.7028083287       36.3047841385  MEOH      810             0.0000000000
     22674      1502  MEOH      HO1            20.1738189509      -13.8816189864       37.1028818398  MEOH      810             0.0000000000
     22675      1502  MEOH      HO2            19.3425485088      -14.3774748075       35.7081323622  MEOH      810             0.0000000000
     22676      1502  MEOH      H1A            17.9550928535      -12.5648531802       35.8246342858  MEOH      810             0.0000000000
     22677      1502  MEOH      H1B            18.7836774466      -12.0329457898       37.3019742905  MEOH      810             0.0000000000
     22678      1502  MEOH      H1C            17.8371681719      -13.5664258262       37.3369908147  MEOH      810             0.0000000000
     22679      1502  MEOH      LP1A           19.5880839377      -14.0238074088       36.3016721281  MEOH      810             0.0000000000
     22680      1502  MEOH      LP1B           19.9239109316      -13.4633273126       36.2266295286  MEOH      810             0.0000000000
     22681      1503  MEOH      C1             32.1281632994        1.2246591284       25.8119283402  MEOH      811             0.0000000000
     22682      1503  MEOH      DC1            32.1317110889        1.2298587324       25.8172029859  MEOH      811             0.0000000000
     22683      1503  MEOH      O1             31.4491352335        2.1730018823       26.6395103220  MEOH      811             0.0000000000
     22684      1503  MEOH      DO1            31.4522186679        2.1743558516       26.6430065917  MEOH      811             0.0000000000
     22685      1503  MEOH      HO1            30.8782990130        2.7000670129       26.0587794399  MEOH      811             0.0000000000
     22686      1503  MEOH      HO2            31.0546171568        1.6579528265       27.3606066810  MEOH      811             0.0000000000
     22687      1503  MEOH      H1A            32.8233096998        0.6175313733       26.4303847825  MEOH      811             0.0000000000
     22688      1503  MEOH      H1B            32.7103911160        1.7512496792       25.0257768517  MEOH      811             0.0000000000
     22689      1503  MEOH      H1C            31.3932566712        0.5461264276       25.3283721156  MEOH      811             0.0000000000
     22690      1503  MEOH      LP1A           31.1502885805        2.0353757800       26.7588825715  MEOH      811             0.0000000000
     22691      1503  MEOH      LP1B           31.6397036526        2.4651958913       26.6679064266  MEOH      811             0.0000000000
     22692      1504  MEOH      C1             29.7914233764       22.3783646321       18.4623763979  MEOH      812             0.0000000000
     22693      1504  MEOH      DC1            29.8027105289       22.3617840938       18.4632781128  MEOH      812             0.0000000000
     22694      1504  MEOH      O1             30.1546332607       21.4919580056       17.4005954868  MEOH      812             0.0000000000
     22695      1504  MEOH      DO1            30.1671057393       21.4837324289       17.4042727026  MEOH      812             0.0000000000
     22696      1504  MEOH      HO1            29.6636141099       21.7786514934       16.6147157000  MEOH      812             0.0000000000
     22697      1504  MEOH      HO2            31.1239929055       21.4570105849       17.3960615396  MEOH      812             0.0000000000
     22698      1504  MEOH      H1A            30.1705218976       21.9811745943       19.4282156107  MEOH      812             0.0000000000
     22699      1504  MEOH      H1B            28.6867063572       22.4804248644       18.5215795933  MEOH      812             0.0000000000
     22700      1504  MEOH      H1C            30.2365828263       23.3825495506       18.2957429249  MEOH      812             0.0000000000
     22701      1504  MEOH      LP1A           30.4364582817       21.6147450457       17.2332694569  MEOH      812             0.0000000000
     22702      1504  MEOH      LP1B           29.9405704969       21.2150712810       17.3972977670  MEOH      812             0.0000000000
     22703      1505  MEOH      C1             35.5938192676       31.0487574155      -34.4377313041  MEOH      813             0.0000000000
     22704      1505  MEOH      DC1            35.5978627568       31.0572014413      -34.4325661491  MEOH      813             0.0000000000
     22705      1505  MEOH      O1             34.5168304060       30.9136983778      -33.5322432503  MEOH      813             0.0000000000
     22706      1505  MEOH      DO1            34.5140300851       30.9164958004      -33.5305609998  MEOH      813             0.0000000000
     22707      1505  MEOH      HO1            34.7420126233       31.3933285552      -32.7197484117  MEOH      813             0.0000000000
     22708      1505  MEOH      HO2            33.7193376843       31.1286916713      -34.0408523758  MEOH      813             0.0000000000
     22709      1505  MEOH      H1A            35.4234846906       30.4310976222      -35.3453675265  MEOH      813             0.0000000000
     22710      1505  MEOH      H1B            36.5314351295       30.7155490394      -33.9435960253  MEOH      813             0.0000000000
     22711      1505  MEOH      H1C            35.6730058255       32.1153102894      -34.7385891740  MEOH      813             0.0000000000
     22712      1505  MEOH      LP1A           34.2854271886       31.1715000939      -33.5821514277  MEOH      813             0.0000000000
     22713      1505  MEOH      LP1B           34.5601375510       30.6266848388      -33.3366730081  MEOH      813             0.0000000000
     22714      1506  MEOH      C1             -3.9589666462        5.6257855075      -20.8077033572  MEOH      814             0.0000000000
     22715      1506  MEOH      DC1            -3.9288592824        5.6263421547      -20.8115120364  MEOH      814             0.0000000000
     22716      1506  MEOH      O1             -5.3763267718        5.7305909445      -20.8088561344  MEOH      814             0.0000000000
     22717      1506  MEOH      DO1            -5.3531212328        5.7385307253      -20.8133563599  MEOH      814             0.0000000000
     22718      1506  MEOH      HO1            -5.7253893689        5.4350902045      -21.6642710139  MEOH      814             0.0000000000
     22719      1506  MEOH      HO2            -5.6648054321        5.2834874876      -19.9978206462  MEOH      814             0.0000000000
     22720      1506  MEOH      H1A            -3.5687019624        6.0201843886      -19.8451733579  MEOH      814             0.0000000000
     22721      1506  MEOH      H1B            -3.5299876596        6.2081079554      -21.6510292706  MEOH      814             0.0000000000
     22722      1506  MEOH      H1C            -3.6760541548        4.5550362977      -20.8958943542  MEOH      814             0.0000000000
     22723      1506  MEOH      LP1A           -5.5183648944        5.4343391516      -20.6881911151  MEOH      814             0.0000000000
     22724      1506  MEOH      LP1B           -5.4727624632        6.0485156501      -20.9189653483  MEOH      814             0.0000000000
     22725      1507  MEOH      C1             -9.8679364854      -31.4957311282       -9.9098959223  MEOH      815             0.0000000000
     22726      1507  MEOH      DC1            -9.8671666532      -31.4785505724       -9.9086066628  MEOH      815             0.0000000000
     22727      1507  MEOH      O1             -9.8897011322      -31.7185367878       -8.5017182150  MEOH      815             0.0000000000
     22728      1507  MEOH      DO1            -9.8958329679      -31.7041620510       -8.5086936970  MEOH      815             0.0000000000
     22729      1507  MEOH      HO1            -9.0656580269      -32.1620012756       -8.2463905655  MEOH      815             0.0000000000
     22730      1507  MEOH      HO2           -10.1548517020      -30.8796966232       -8.0931324166  MEOH      815             0.0000000000
     22731      1507  MEOH      H1A           -10.8743162079      -31.1774455669      -10.2566164953  MEOH      815             0.0000000000
     22732      1507  MEOH      H1B            -9.6022419224      -32.4413560715      -10.4290499141  MEOH      815             0.0000000000
     22733      1507  MEOH      H1C            -9.1254421251      -30.7113166300      -10.1701208643  MEOH      815             0.0000000000
     22734      1507  MEOH      LP1A           -9.7543416154      -31.4423348269       -8.3347143887  MEOH      815             0.0000000000
     22735      1507  MEOH      LP1B          -10.0390620481      -32.0272156848       -8.4316564183  MEOH      815             0.0000000000
     22736      1508  MEOH      C1            -34.6968789044       33.9561241475       18.5234254977  MEOH      816             0.0000000000
     22737      1508  MEOH      DC1           -34.6971638321       33.9695729411       18.5159410543  MEOH      816             0.0000000000
     22738      1508  MEOH      O1            -33.9456841829       33.2020405224       19.4774789852  MEOH      816             0.0000000000
     22739      1508  MEOH      DO1           -33.9409441128       33.2188308982       19.4722848772  MEOH      816             0.0000000000
     22740      1508  MEOH      HO1           -33.8284489436       32.2973382241       19.1478281851  MEOH      816             0.0000000000
     22741      1508  MEOH      HO2           -33.2080506418       33.7580448125       19.7735465276  MEOH      816             0.0000000000
     22742      1508  MEOH      H1A           -35.0918032096       34.8747762524       19.0076094546  MEOH      816             0.0000000000
     22743      1508  MEOH      H1B           -35.5687211055       33.3534027350       18.1903503180  MEOH      816             0.0000000000
     22744      1508  MEOH      H1C           -34.0729470705       34.2189846764       17.6425541048  MEOH      816             0.0000000000
     22745      1508  MEOH      LP1A          -33.6032729023       33.2337791333       19.4123086276  MEOH      816             0.0000000000
     22746      1508  MEOH      LP1B          -34.1616440373       33.0532266106       19.7092455940  MEOH      816             0.0000000000
     22747      1509  MEOH      C1             13.2405192170       33.9028708400       15.8718186868  MEOH      817             0.0000000000
     22748      1509  MEOH      DC1            13.2357255807       33.9033949004       15.8560531786  MEOH      817             0.0000000000
     22749      1509  MEOH      O1             13.2197098538       33.0788425496       14.7134144878  MEOH      817             0.0000000000
     22750      1509  MEOH      DO1            13.2151018056       33.0705700763       14.7048031218  MEOH      817             0.0000000000
     22751      1509  MEOH      HO1            13.8682383407       32.3728874983       14.8615302158  MEOH      817             0.0000000000
     22752      1509  MEOH      HO2            12.2861165336       32.8660697808       14.5583942914  MEOH      817             0.0000000000
     22753      1509  MEOH      H1A            12.6172210027       34.8099056478       15.7198048914  MEOH      817             0.0000000000
     22754      1509  MEOH      H1B            14.2840064374       34.2164547804       16.0888913316  MEOH      817             0.0000000000
     22755      1509  MEOH      H1C            12.8371382219       33.3322845556       16.7355524807  MEOH      817             0.0000000000
     22756      1509  MEOH      LP1A           12.9799365740       32.8265518760       14.7502681215  MEOH      817             0.0000000000
     22757      1509  MEOH      LP1B           13.4479145366       33.1990966835       14.4768525170  MEOH      817             0.0000000000
     22758      1510  MEOH      C1             34.6697390110       20.4736906073       29.2102259577  MEOH      818             0.0000000000
     22759      1510  MEOH      DC1            34.6840789003       20.4554254425       29.2011894134  MEOH      818             0.0000000000
     22760      1510  MEOH      O1             34.0928242149       21.7642927223       29.3937509275  MEOH      818             0.0000000000
     22761      1510  MEOH      DO1            34.1130253202       21.7418526473       29.3925145700  MEOH      818             0.0000000000
     22762      1510  MEOH      HO1            34.7353650801       22.4691455886       29.2170487080  MEOH      818             0.0000000000
     22763      1510  MEOH      HO2            33.2472669071       21.7550478956       28.9185169090  MEOH      818             0.0000000000
     22764      1510  MEOH      H1A            33.9342773961       19.7152353079       29.5539740803  MEOH      818             0.0000000000
     22765      1510  MEOH      H1B            35.5874763941       20.3715501148       29.8280013350  MEOH      818             0.0000000000
     22766      1510  MEOH      H1C            34.8998390799       20.3056439023       28.1363845990  MEOH      818             0.0000000000
     22767      1510  MEOH      LP1A           33.9480307095       21.8743161804       29.0947029724  MEOH      818             0.0000000000
     22768      1510  MEOH      LP1B           34.1307253391       21.8661477243       29.7264505869  MEOH      818             0.0000000000
     22769      1511  MEOH      C1             13.3360356880       35.6015381850      -22.4590019723  MEOH      819             0.0000000000
     22770      1511  MEOH      DC1            13.3382627889       35.6065391664      -22.4527477141  MEOH      819             0.0000000000
     22771      1511  MEOH      O1             14.1731095092       34.4478648972      -22.5080261517  MEOH      819             0.0000000000
     22772      1511  MEOH      DO1            14.1732297234       34.4541093778      -22.4934778773  MEOH      819             0.0000000000
     22773      1511  MEOH      HO1            13.9411320445       33.9517451097      -23.3086206890  MEOH      819             0.0000000000
     22774      1511  MEOH      HO2            15.0803444622       34.7712359975      -22.3928920056  MEOH      819             0.0000000000
     22775      1511  MEOH      H1A            13.5610622296       36.1697739041      -21.5312130830  MEOH      819             0.0000000000
     22776      1511  MEOH      H1B            12.2629035162       35.3141190472      -22.4490730710  MEOH      819             0.0000000000
     22777      1511  MEOH      H1C            13.5260025836       36.2388149218      -23.3490086800  MEOH      819             0.0000000000
     22778      1511  MEOH      LP1A           14.4700916946       34.5225634248      -22.6775009626  MEOH      819             0.0000000000
     22779      1511  MEOH      LP1B           14.0216573803       34.1827211160      -22.3369676006  MEOH      819             0.0000000000
     22780      1512  MEOH      C1              1.8814583890      -24.6978397887        9.5454829836  MEOH      820             0.0000000000
     22781      1512  MEOH      DC1             1.8786549452      -24.6922326211        9.5478647750  MEOH      820             0.0000000000
     22782      1512  MEOH      O1              2.8947928657      -23.7000905284        9.4272142428  MEOH      820             0.0000000000
     22783      1512  MEOH      DO1             2.9000960472      -23.7025260876        9.4465946541  MEOH      820             0.0000000000
     22784      1512  MEOH      HO1             3.6164828120      -24.0978835722        8.9155265289  MEOH      820             0.0000000000
     22785      1512  MEOH      HO2             2.4487371496      -22.9094161172        9.0855005123  MEOH      820             0.0000000000
     22786      1512  MEOH      H1A             1.0129430868      -24.2980531461       10.1113211327  MEOH      820             0.0000000000
     22787      1512  MEOH      H1B             2.2739266973      -25.5859621395       10.0854166064  MEOH      820             0.0000000000
     22788      1512  MEOH      H1C             1.5572005530      -25.0094573532        8.5295733660  MEOH      820             0.0000000000
     22789      1512  MEOH      LP1A            2.8383464723      -23.5053735603        9.1419089555  MEOH      820             0.0000000000
     22790      1512  MEOH      LP1B            3.1147656712      -23.7201095470        9.6987123160  MEOH      820             0.0000000000
     22791      1513  MEOH      C1            -21.3065151361        5.5153902612       28.2877315741  MEOH      821             0.0000000000
     22792      1513  MEOH      DC1           -21.3183391326        5.5232554636       28.2825974153  MEOH      821             0.0000000000
     22793      1513  MEOH      O1            -21.1655383490        6.2475758030       27.0768864194  MEOH      821             0.0000000000
     22794      1513  MEOH      DO1           -21.1724232982        6.2583125488       27.0782399346  MEOH      821             0.0000000000
     22795      1513  MEOH      HO1           -20.5677875908        6.9898893503       27.2573431419  MEOH      821             0.0000000000
     22796      1513  MEOH      HO2           -20.9457987304        5.5966806242       26.3920872029  MEOH      821             0.0000000000
     22797      1513  MEOH      H1A           -22.0315292648        4.6869197006       28.1383594072  MEOH      821             0.0000000000
     22798      1513  MEOH      H1B           -21.6851774523        6.1863850851       29.0881700767  MEOH      821             0.0000000000
     22799      1513  MEOH      H1C           -20.3281606687        5.0875017838       28.5944154326  MEOH      821             0.0000000000
     22800      1513  MEOH      LP1A          -20.8998239264        6.1184898614       26.8891827559  MEOH      821             0.0000000000
     22801      1513  MEOH      LP1B          -21.4145718546        6.4925717280       27.0554549042  MEOH      821             0.0000000000
     22802      1514  MEOH      C1             -1.4455467182       21.4745489202      -24.8207614313  MEOH      822             0.0000000000
     22803      1514  MEOH      DC1            -1.4417862725       21.4777427783      -24.8150088309  MEOH      822             0.0000000000
     22804      1514  MEOH      O1             -2.4724319496       20.8177253995      -25.5640308240  MEOH      822             0.0000000000
     22805      1514  MEOH      DO1            -2.4789660460       20.8271531922      -25.5674633526  MEOH      822             0.0000000000
     22806      1514  MEOH      HO1            -2.2209198273       20.8965265195      -26.4975360655  MEOH      822             0.0000000000
     22807      1514  MEOH      HO2            -2.5343240466       19.9316928826      -25.1741388534  MEOH      822             0.0000000000
     22808      1514  MEOH      H1A            -1.5592377491       21.2696728154      -23.7347498608  MEOH      822             0.0000000000
     22809      1514  MEOH      H1B            -1.4862995688       22.5733727322      -24.9796527059  MEOH      822             0.0000000000
     22810      1514  MEOH      H1C            -0.4520111393       21.0960047057      -25.1431157889  MEOH      822             0.0000000000
     22811      1514  MEOH      LP1A           -2.3952678651       20.4783055551      -25.6006351031  MEOH      822             0.0000000000
     22812      1514  MEOH      LP1B           -2.7272749385       21.0445079496      -25.6422914529  MEOH      822             0.0000000000
     22813      1515  MEOH      C1             36.8264846158      -11.5390133313        8.8255671080  MEOH      823             0.0000000000
     22814      1515  MEOH      DC1            36.8223714001      -11.5406076375        8.8253567639  MEOH      823             0.0000000000
     22815      1515  MEOH      O1             35.4994016259      -11.1983384815        9.1960411142  MEOH      823             0.0000000000
     22816      1515  MEOH      DO1            35.4918412138      -11.1965782280        9.1963869411  MEOH      823             0.0000000000
     22817      1515  MEOH      HO1            35.2804150273      -10.3789175697        8.7254093686  MEOH      823             0.0000000000
     22818      1515  MEOH      HO2            34.9670178765      -11.9985363610        9.0650796805  MEOH      823             0.0000000000
     22819      1515  MEOH      H1A            37.1591810045      -12.4379318862        9.3873317781  MEOH      823             0.0000000000
     22820      1515  MEOH      H1B            37.4829569516      -10.6774326079        9.0726374026  MEOH      823             0.0000000000
     22821      1515  MEOH      H1C            36.8816136782      -11.7377150175        7.7338714421  MEOH      823             0.0000000000
     22822      1515  MEOH      LP1A           35.2715363764      -11.3502287946        8.9780806571  MEOH      823             0.0000000000
     22823      1515  MEOH      LP1B           35.5028981954      -10.9982804042        9.4832075115  MEOH      823             0.0000000000
     22824      1516  MEOH      C1              0.3290782898        3.6654582918      -28.3296988753  MEOH      824             0.0000000000
     22825      1516  MEOH      DC1             0.3425308036        3.6525436908      -28.3163260475  MEOH      824             0.0000000000
     22826      1516  MEOH      O1             -0.6596728113        4.5071157896      -28.9204664196  MEOH      824             0.0000000000
     22827      1516  MEOH      DO1            -0.6450265282        4.5079031392      -28.9135513384  MEOH      824             0.0000000000
     22828      1516  MEOH      HO1            -1.4306389496        4.5344177201      -28.3324478670  MEOH      824             0.0000000000
     22829      1516  MEOH      HO2            -0.2044840197        5.3185511311      -29.1948308706  MEOH      824             0.0000000000
     22830      1516  MEOH      H1A             1.1499227135        3.5043895653      -29.0608570643  MEOH      824             0.0000000000
     22831      1516  MEOH      H1B            -0.1240895866        2.6840851708      -28.0730538386  MEOH      824             0.0000000000
     22832      1516  MEOH      H1C             0.7366607058        4.1485628025      -27.4160208103  MEOH      824             0.0000000000
     22833      1516  MEOH      LP1A           -0.6111346727        4.8384590423      -28.8187034698  MEOH      824             0.0000000000
     22834      1516  MEOH      LP1B           -0.8671870361        4.3189453378      -29.1302990376  MEOH      824             0.0000000000
     22835      1517  MEOH      C1            -27.9889614272      -32.1511528933       -0.3785479304  MEOH      825             0.0000000000
     22836      1517  MEOH      DC1           -27.9820584736      -32.1459090324       -0.3889210338  MEOH      825             0.0000000000
     22837      1517  MEOH      O1            -28.1855423437      -30.7677446992       -0.6374008933  MEOH      825             0.0000000000
     22838      1517  MEOH      DO1           -28.1762711446      -30.7664926435       -0.6436546885  MEOH      825             0.0000000000
     22839      1517  MEOH      HO1           -27.4235770140      -30.2904039611       -0.2734576865  MEOH      825             0.0000000000
     22840      1517  MEOH      HO2           -28.4473335966      -30.6869032401       -1.5679007581  MEOH      825             0.0000000000
     22841      1517  MEOH      H1A           -28.9374575516      -32.7034402710       -0.5507534916  MEOH      825             0.0000000000
     22842      1517  MEOH      H1B           -27.6791604822      -32.2686327346        0.6818967222  MEOH      825             0.0000000000
     22843      1517  MEOH      H1C           -27.1912806037      -32.5600325138       -1.0349348301  MEOH      825             0.0000000000
     22844      1517  MEOH      LP1A          -28.0501664148      -30.6838579476       -0.9490679765  MEOH      825             0.0000000000
     22845      1517  MEOH      LP1B          -28.3639997875      -30.6209490926       -0.3745245143  MEOH      825             0.0000000000
     22846      1518  MEOH      C1            -12.9655588851       27.0898709507      -32.5155555218  MEOH      826             0.0000000000
     22847      1518  MEOH      DC1           -12.9568415074       27.0827215353      -32.5159510854  MEOH      826             0.0000000000
     22848      1518  MEOH      O1            -12.0984507063       28.1162247547      -32.9916991718  MEOH      826             0.0000000000
     22849      1518  MEOH      DO1           -12.1097006663       28.1078948466      -33.0087774708  MEOH      826             0.0000000000
     22850      1518  MEOH      HO1           -12.0483012079       28.8065969351      -32.3121616229  MEOH      826             0.0000000000
     22851      1518  MEOH      HO2           -11.2819504790       27.6604142516      -33.2495056209  MEOH      826             0.0000000000
     22852      1518  MEOH      H1A           -13.0961336241       26.3252803038      -33.3109625762  MEOH      826             0.0000000000
     22853      1518  MEOH      H1B           -13.9563377349       27.5113409706      -32.2416188620  MEOH      826             0.0000000000
     22854      1518  MEOH      H1C           -12.5144580565       26.5892706985      -31.6322501216  MEOH      826             0.0000000000
     22855      1518  MEOH      LP1A          -11.7681261876       28.0461027333      -32.8996740966  MEOH      826             0.0000000000
     22856      1518  MEOH      LP1B          -12.2814896358       28.3528268730      -33.1734027433  MEOH      826             0.0000000000
     22857      1519  MEOH      C1             34.1258428133        1.4226433779      -34.2857481930  MEOH      827             0.0000000000
     22858      1519  MEOH      DC1            34.1422186418        1.4111374406      -34.2743047819  MEOH      827             0.0000000000
     22859      1519  MEOH      O1             32.9204776235        2.1189581121      -34.5761301812  MEOH      827             0.0000000000
     22860      1519  MEOH      DO1            32.9412070654        2.1082594618      -34.5680235656  MEOH      827             0.0000000000
     22861      1519  MEOH      HO1            32.1798301738        1.7597605116      -34.0629845489  MEOH      827             0.0000000000
     22862      1519  MEOH      HO2            33.1319651651        3.0647385229      -34.5352347729  MEOH      827             0.0000000000
     22863      1519  MEOH      H1A            34.9000237344        1.7471228671      -35.0135379725  MEOH      827             0.0000000000
     22864      1519  MEOH      H1B            33.9647667002        0.3279467743      -34.3858223250  MEOH      827             0.0000000000
     22865      1519  MEOH      H1C            34.4672056707        1.6800558641      -33.2603062332  MEOH      827             0.0000000000
     22866      1519  MEOH      LP1A           32.8864325425        2.3937593131      -34.3620618921  MEOH      827             0.0000000000
     22867      1519  MEOH      LP1B           32.7572398306        1.9680986201      -34.8464907491  MEOH      827             0.0000000000
     22868      1520  MEOH      C1              9.2519377889       -7.0507161370       19.1423097755  MEOH      828             0.0000000000
     22869      1520  MEOH      DC1             9.2506403479       -7.0640104268       19.1254375979  MEOH      828             0.0000000000
     22870      1520  MEOH      O1              8.3990030851       -7.8012568176       18.2872189568  MEOH      828             0.0000000000
     22871      1520  MEOH      DO1             8.3987979167       -7.8047839748       18.2763758857  MEOH      828             0.0000000000
     22872      1520  MEOH      HO1             8.1650019549       -8.6187194957       18.7540146747  MEOH      828             0.0000000000
     22873      1520  MEOH      HO2             7.7047204577       -7.1796561140       18.0179900608  MEOH      828             0.0000000000
     22874      1520  MEOH      H1A             9.5218452077       -6.0914163776       18.6511733816  MEOH      828             0.0000000000
     22875      1520  MEOH      H1B            10.1850448488       -7.6131728476       19.3597371507  MEOH      828             0.0000000000
     22876      1520  MEOH      H1C             8.7334647661       -6.8107638840       20.0951631969  MEOH      828             0.0000000000
     22877      1520  MEOH      LP1A            8.0652989652       -7.7108026472       18.3416211942  MEOH      828             0.0000000000
     22878      1520  MEOH      LP1B            8.5898367059       -8.0098424961       18.0808829593  MEOH      828             0.0000000000
     22879      1521  MEOH      C1             11.6071757830       -0.9431319213      -28.1483365705  MEOH      829             0.0000000000
     22880      1521  MEOH      DC1            11.6051439441       -0.9452727425      -28.1375848130  MEOH      829             0.0000000000
     22881      1521  MEOH      O1             12.1785300849       -2.1720722274      -28.5838796854  MEOH      829             0.0000000000
     22882      1521  MEOH      DO1            12.1755629074       -2.1724597264      -28.5813485338  MEOH      829             0.0000000000
     22883      1521  MEOH      HO1            12.8421894337       -2.4475184418      -27.9322773126  MEOH      829             0.0000000000
     22884      1521  MEOH      HO2            11.4339509343       -2.7451872968      -28.8247966956  MEOH      829             0.0000000000
     22885      1521  MEOH      H1A            10.9396494334       -0.5490022242      -28.9441954493  MEOH      829             0.0000000000
     22886      1521  MEOH      H1B            12.4076007656       -0.1962346788      -27.9591663921  MEOH      829             0.0000000000
     22887      1521  MEOH      H1C            11.0171443654       -1.1042351749      -27.2208508997  MEOH      829             0.0000000000
     22888      1521  MEOH      LP1A           11.9922269868       -2.4412420155      -28.4600298537  MEOH      829             0.0000000000
     22889      1521  MEOH      LP1B           12.4541771099       -2.1094362943      -28.7902663553  MEOH      829             0.0000000000
     22890      1522  MEOH      C1            -33.0906758919       -4.9508850726       16.1354803897  MEOH      830             0.0000000000
     22891      1522  MEOH      DC1           -33.0992734759       -4.9507422443       16.1318958619  MEOH      830             0.0000000000
     22892      1522  MEOH      O1            -31.8103936072       -4.8565300694       15.5225235907  MEOH      830             0.0000000000
     22893      1522  MEOH      DO1           -31.8217818191       -4.8542513789       15.5137672429  MEOH      830             0.0000000000
     22894      1522  MEOH      HO1           -31.2343731387       -4.3742873900       16.1361541137  MEOH      830             0.0000000000
     22895      1522  MEOH      HO2           -31.5761056100       -5.7679711985       15.2873976616  MEOH      830             0.0000000000
     22896      1522  MEOH      H1A           -33.7956520044       -5.4774041156       15.4571682354  MEOH      830             0.0000000000
     22897      1522  MEOH      H1B           -33.4807142458       -3.9345488063       16.3574075764  MEOH      830             0.0000000000
     22898      1522  MEOH      H1C           -33.0012374419       -5.5261152747       17.0817530669  MEOH      830             0.0000000000
     22899      1522  MEOH      LP1A          -31.6164751107       -5.1354429333       15.6068042595  MEOH      830             0.0000000000
     22900      1522  MEOH      LP1B          -31.7927930316       -4.5674755894       15.3259587736  MEOH      830             0.0000000000
     22901      1523  MEOH      C1              6.8118006367       10.4813242132        3.3848133726  MEOH      831             0.0000000000
     22902      1523  MEOH      DC1             6.8036004485       10.4688975824        3.3865450722  MEOH      831             0.0000000000
     22903      1523  MEOH      O1              5.5992509917       10.1035038587        4.0407180221  MEOH      831             0.0000000000
     22904      1523  MEOH      DO1             5.5943300573       10.0914848385        4.0379640835  MEOH      831             0.0000000000
     22905      1523  MEOH      HO1             4.8689912318       10.5465555121        3.5810160366  MEOH      831             0.0000000000
     22906      1523  MEOH      HO2             5.6268217396        9.1397358587        4.1469775969  MEOH      831             0.0000000000
     22907      1523  MEOH      H1A             7.6803012914       10.1670250580        4.0022626862  MEOH      831             0.0000000000
     22908      1523  MEOH      H1B             6.8521095478       11.5839483681        3.2547512154  MEOH      831             0.0000000000
     22909      1523  MEOH      H1C             6.8806205769        9.9893365799        2.3910664295  MEOH      831             0.0000000000
     22910      1523  MEOH      LP1A            5.4716310259        9.8109318719        3.8971395526  MEOH      831             0.0000000000
     22911      1523  MEOH      LP1B            5.5297740886       10.3263412331        4.3015176856  MEOH      831             0.0000000000
     22912      1524  MEOH      C1            -11.9391268886        5.5105759766      -24.8758982558  MEOH      832             0.0000000000
     22913      1524  MEOH      DC1           -11.9776129329        5.4923030678      -24.8800663560  MEOH      832             0.0000000000
     22914      1524  MEOH      O1            -13.1550477484        5.1753798521      -24.2088108624  MEOH      832             0.0000000000
     22915      1524  MEOH      DO1           -13.1766715682        5.1794929692      -24.2129000874  MEOH      832             0.0000000000
     22916      1524  MEOH      HO1           -13.0368815842        4.2756904569      -23.8660343319  MEOH      832             0.0000000000
     22917      1524  MEOH      HO2           -13.3086312676        5.9031017997      -23.5861288648  MEOH      832             0.0000000000
     22918      1524  MEOH      H1A           -12.0246259552        6.5286774030      -25.3123388534  MEOH      832             0.0000000000
     22919      1524  MEOH      H1B           -11.7247705895        4.7914067487      -25.6951466924  MEOH      832             0.0000000000
     22920      1524  MEOH      H1C           -11.0867381331        5.5205171778      -24.1633987240  MEOH      832             0.0000000000
     22921      1524  MEOH      LP1A          -13.1391320573        5.2750487255      -23.8736798336  MEOH      832             0.0000000000
     22922      1524  MEOH      LP1B          -13.3792911632        5.0297713280      -24.4346715466  MEOH      832             0.0000000000
     22923      1525  MEOH      C1             17.0263652928       20.2881590530       17.0512972566  MEOH      833             0.0000000000
     22924      1525  MEOH      DC1            17.0337188078       20.2870704257       17.0618322692  MEOH      833             0.0000000000
     22925      1525  MEOH      O1             17.7896927361       21.3482395032       16.4730520238  MEOH      833             0.0000000000
     22926      1525  MEOH      DO1            17.7978971969       21.3473148421       16.4870218252  MEOH      833             0.0000000000
     22927      1525  MEOH      HO1            18.1979282029       20.9984345925       15.6656609611  MEOH      833             0.0000000000
     22928      1525  MEOH      HO2            17.1716949946       22.0925753960       16.4027464658  MEOH      833             0.0000000000
     22929      1525  MEOH      H1A            16.5413454569       20.6253471323       17.9922440982  MEOH      833             0.0000000000
     22930      1525  MEOH      H1B            17.6644738641       19.4015023654       17.2537284043  MEOH      833             0.0000000000
     22931      1525  MEOH      H1C            16.2296501594       20.0021408542       16.3317421248  MEOH      833             0.0000000000
     22932      1525  MEOH      LP1A           17.5893306923       21.5349595421       16.2551284627  MEOH      833             0.0000000000
     22933      1525  MEOH      LP1B           18.1148140125       21.3461324474       16.6026348775  MEOH      833             0.0000000000
     22934      1526  MEOH      C1            -22.9314907295       11.6680362680      -17.2348667915  MEOH      834             0.0000000000
     22935      1526  MEOH      DC1           -22.9183119500       11.6600171599      -17.2350412012  MEOH      834             0.0000000000
     22936      1526  MEOH      O1            -23.3142985456       10.3309854626      -16.8955007633  MEOH      834             0.0000000000
     22937      1526  MEOH      DO1           -23.2961655234       10.3194818620      -16.8948733219  MEOH      834             0.0000000000
     22938      1526  MEOH      HO1           -23.9298712658       10.0308497005      -17.5824423549  MEOH      834             0.0000000000
     22939      1526  MEOH      HO2           -22.5030321478        9.8520487896      -16.6644888663  MEOH      834             0.0000000000
     22940      1526  MEOH      H1A           -22.4504564287       12.1555696328      -16.3600878362  MEOH      834             0.0000000000
     22941      1526  MEOH      H1B           -23.8273006472       12.2557329173      -17.5289046117  MEOH      834             0.0000000000
     22942      1526  MEOH      H1C           -22.2159152780       11.6624720939      -18.0847149044  MEOH      834             0.0000000000
     22943      1526  MEOH      LP1A          -23.0904286129       10.1026181607      -17.0377351776  MEOH      834             0.0000000000
     22944      1526  MEOH      LP1B          -23.5955071070       10.3362009619      -16.6871871930  MEOH      834             0.0000000000
     22945      1527  MEOH      C1              9.6564520916       25.8013964874        8.2110808848  MEOH      835             0.0000000000
     22946      1527  MEOH      DC1             9.6762235319       25.8004324431        8.2077270320  MEOH      835             0.0000000000
     22947      1527  MEOH      O1             10.7449809978       24.8944016038        8.3138199712  MEOH      835             0.0000000000
     22948      1527  MEOH      DO1            10.7612200070       24.8925560935        8.3125301546  MEOH      835             0.0000000000
     22949      1527  MEOH      HO1            11.1843170556       25.1260446776        9.1470218162  MEOH      835             0.0000000000
     22950      1527  MEOH      HO2            10.3448888591       24.0140638114        8.2374547138  MEOH      835             0.0000000000
     22951      1527  MEOH      H1A             9.0193773032       25.4925744332        7.3548766728  MEOH      835             0.0000000000
     22952      1527  MEOH      H1B            10.0191807912       26.8391687818        8.0505269780  MEOH      835             0.0000000000
     22953      1527  MEOH      H1C             9.0050374041       25.7598476369        9.1101101382  MEOH      835             0.0000000000
     22954      1527  MEOH      LP1A           10.6427118732       24.6027831078        8.4781357616  MEOH      835             0.0000000000
     22955      1527  MEOH      LP1B           11.0276574148       25.0283801780        8.1568365807  MEOH      835             0.0000000000
     22956      1528  MEOH      C1            -26.5081128526       13.3955086260        1.8924891438  MEOH      836             0.0000000000
     22957      1528  MEOH      DC1           -26.4937512603       13.3987069987        1.8899133826  MEOH      836             0.0000000000
     22958      1528  MEOH      O1            -25.8938313322       14.5965204187        2.3691868411  MEOH      836             0.0000000000
     22959      1528  MEOH      DO1           -25.8789999884       14.6189904229        2.3464120128  MEOH      836             0.0000000000
     22960      1528  MEOH      HO1           -25.2821968848       14.3281760944        3.0726032372  MEOH      836             0.0000000000
     22961      1528  MEOH      HO2           -25.6644306249       15.1424145847        1.6008933582  MEOH      836             0.0000000000
     22962      1528  MEOH      H1A           -27.4801786256       13.6410675102        1.4138348141  MEOH      836             0.0000000000
     22963      1528  MEOH      H1B           -26.6928040416       12.6941164967        2.7340705404  MEOH      836             0.0000000000
     22964      1528  MEOH      H1C           -25.8540237912       12.9050443724        1.1402037483  MEOH      836             0.0000000000
     22965      1528  MEOH      LP1A          -25.6053867070       14.6653794289        2.1832886569  MEOH      836             0.0000000000
     22966      1528  MEOH      LP1B          -26.0855868360       14.7347542298        2.6272977479  MEOH      836             0.0000000000
     22967      1529  MEOH      C1             35.3402990657       35.1394654855      -12.8381880231  MEOH      837             0.0000000000
     22968      1529  MEOH      DC1            35.3302993267       35.1391226055      -12.8389853346  MEOH      837             0.0000000000
     22969      1529  MEOH      O1             34.1293400766       35.1137870562      -12.0808428121  MEOH      837             0.0000000000
     22970      1529  MEOH      DO1            34.1138100608       35.1152153048      -12.0878283590  MEOH      837             0.0000000000
     22971      1529  MEOH      HO1            34.1316377444       34.2717398712      -11.5993334571  MEOH      837             0.0000000000
     22972      1529  MEOH      HO2            34.1116645047       35.9484561669      -11.5869652457  MEOH      837             0.0000000000
     22973      1529  MEOH      H1A            35.4199244569       36.1057064555      -13.3807368101  MEOH      837             0.0000000000
     22974      1529  MEOH      H1B            35.3498007713       34.3145433064      -13.5823211536  MEOH      837             0.0000000000
     22975      1529  MEOH      H1C            36.2129645157       35.0376261363      -12.1581845218  MEOH      837             0.0000000000
     22976      1529  MEOH      LP1A           34.1808897436       35.2612234800      -11.7676254230  MEOH      837             0.0000000000
     22977      1529  MEOH      LP1B           33.8720066148       34.9723583097      -12.2713090797  MEOH      837             0.0000000000
     22978      1530  MEOH      C1            -28.3931652822       31.6958112965       24.8841534034  MEOH      838             0.0000000000
     22979      1530  MEOH      DC1           -28.3939614832       31.6982652452       24.8831945483  MEOH      838             0.0000000000
     22980      1530  MEOH      O1            -27.5714950129       30.6464693904       25.3774798336  MEOH      838             0.0000000000
     22981      1530  MEOH      DO1           -27.5719757926       30.6449598106       25.3803505136  MEOH      838             0.0000000000
     22982      1530  MEOH      HO1           -27.7899600681       29.8660033706       24.8445203485  MEOH      838             0.0000000000
     22983      1530  MEOH      HO2           -26.6689538144       31.0010107161       25.3525833768  MEOH      838             0.0000000000
     22984      1530  MEOH      H1A           -28.1966369355       32.6336815629       25.4463784226  MEOH      838             0.0000000000
     22985      1530  MEOH      H1B           -29.4640609947       31.4263073681       25.0061001437  MEOH      838             0.0000000000
     22986      1530  MEOH      H1C           -28.1739082646       31.8770184991       23.8101835200  MEOH      838             0.0000000000
     22987      1530  MEOH      LP1A          -27.2658329419       30.6435464435       25.2070035751  MEOH      838             0.0000000000
     22988      1530  MEOH      LP1B          -27.7341606556       30.4798083336       25.6387535997  MEOH      838             0.0000000000
     22989      1531  MEOH      C1             11.1824104185       25.3079870278      -33.2011818515  MEOH      839             0.0000000000
     22990      1531  MEOH      DC1            11.1791599413       25.3009291934      -33.1822902567  MEOH      839             0.0000000000
     22991      1531  MEOH      O1             10.4778691811       24.6689771096      -32.1308339994  MEOH      839             0.0000000000
     22992      1531  MEOH      DO1            10.4730604322       24.6694025194      -32.1103819427  MEOH      839             0.0000000000
     22993      1531  MEOH      HO1             9.6599546169       24.3324515938      -32.5291634407  MEOH      839             0.0000000000
     22994      1531  MEOH      HO2            11.1118261967       24.0481388716      -31.7389687361  MEOH      839             0.0000000000
     22995      1531  MEOH      H1A            12.1417168262       25.7331962003      -32.8361484604  MEOH      839             0.0000000000
     22996      1531  MEOH      H1B            10.5657755534       26.1280433874      -33.6273156452  MEOH      839             0.0000000000
     22997      1531  MEOH      H1C            11.3986549304       24.5738380755      -34.0065293720  MEOH      839             0.0000000000
     22998      1531  MEOH      LP1A           10.5740593695       24.3332429534      -32.1078117496  MEOH      839             0.0000000000
     22999      1531  MEOH      LP1B           10.2723743567       24.9006018090      -31.9676718844  MEOH      839             0.0000000000
     23000      1532  MEOH      C1             -0.9058080312       23.6659366098      -17.4041413929  MEOH      840             0.0000000000
     23001      1532  MEOH      DC1            -0.9103306296       23.6600487196      -17.4093792968  MEOH      840             0.0000000000
     23002      1532  MEOH      O1             -1.4029231847       22.6650367356      -18.2972951328  MEOH      840             0.0000000000
     23003      1532  MEOH      DO1            -1.4061290771       22.6637018116      -18.3046451465  MEOH      840             0.0000000000
     23004      1532  MEOH      HO1            -2.1993681501       22.2868897598      -17.8928445386  MEOH      840             0.0000000000
     23005      1532  MEOH      HO2            -1.4219401359       23.0650901678      -19.1807517571  MEOH      840             0.0000000000
     23006      1532  MEOH      H1A             0.0604636521       24.0585855917      -17.7868512200  MEOH      840             0.0000000000
     23007      1532  MEOH      H1B            -0.7369332973       23.2332987787      -16.3948709478  MEOH      840             0.0000000000
     23008      1532  MEOH      H1C            -1.6314811487       24.5027767658      -17.3180131036  MEOH      840             0.0000000000
     23009      1532  MEOH      LP1A           -1.6245289546       22.8088629077      -18.5268706432  MEOH      840             0.0000000000
     23010      1532  MEOH      LP1B           -1.2558805410       22.3558919996      -18.2244391579  MEOH      840             0.0000000000
     23011      1533  MEOH      C1            -27.9195836680       24.4853699235      -20.5384052053  MEOH      841             0.0000000000
     23012      1533  MEOH      DC1           -27.9191548736       24.4848346889      -20.5442789062  MEOH      841             0.0000000000
     23013      1533  MEOH      O1            -28.6030192605       24.3376338806      -21.7787586853  MEOH      841             0.0000000000
     23014      1533  MEOH      DO1           -28.6146452700       24.3259373569      -21.7798897276  MEOH      841             0.0000000000
     23015      1533  MEOH      HO1           -28.7767452286       23.3899216436      -21.8908336824  MEOH      841             0.0000000000
     23016      1533  MEOH      HO2           -29.3270951920       24.9823878727      -21.7486532868  MEOH      841             0.0000000000
     23017      1533  MEOH      H1A           -27.6174612079       25.5448740427      -20.3952478022  MEOH      841             0.0000000000
     23018      1533  MEOH      H1B           -27.0119687258       23.8459618056      -20.4970122586  MEOH      841             0.0000000000
     23019      1533  MEOH      H1C           -28.5970894942       24.1822275342      -19.7117181138  MEOH      841             0.0000000000
     23020      1533  MEOH      LP1A          -28.9483759400       24.3654211821      -21.7291942847  MEOH      841             0.0000000000
     23021      1533  MEOH      LP1B          -28.3720882620       24.2963598021      -22.0385034146  MEOH      841             0.0000000000
     23022      1534  MEOH      C1             28.0663917578       19.4079513820      -30.2565319088  MEOH      842             0.0000000000
     23023      1534  MEOH      DC1            28.0418722642       19.3977109038      -30.2517808362  MEOH      842             0.0000000000
     23024      1534  MEOH      O1             27.7717750487       18.0094528178      -30.2281671866  MEOH      842             0.0000000000
     23025      1534  MEOH      DO1            27.7451582964       18.0039430922      -30.2146459234  MEOH      842             0.0000000000
     23026      1534  MEOH      HO1            28.4728114663       17.5894648247      -29.7056176401  MEOH      842             0.0000000000
     23027      1534  MEOH      HO2            26.8235767055       17.9166584326      -30.0459335343  MEOH      842             0.0000000000
     23028      1534  MEOH      H1A            27.5552207586       19.8884189682      -31.1180283450  MEOH      842             0.0000000000
     23029      1534  MEOH      H1B            29.1611091639       19.5565111763      -30.3741957890  MEOH      842             0.0000000000
     23030      1534  MEOH      H1C            27.7426976960       19.8941094596      -29.3114427713  MEOH      842             0.0000000000
     23031      1534  MEOH      LP1A           27.5645413377       17.9362761805      -29.9557715759  MEOH      842             0.0000000000
     23032      1534  MEOH      LP1B           27.9203042336       17.8502461332      -30.5021969529  MEOH      842             0.0000000000
     23033      1535  MEOH      C1             -5.2115121404       19.5551220144      -18.4236009297  MEOH      843             0.0000000000
     23034      1535  MEOH      DC1            -5.2151201832       19.5614265192      -18.4324827121  MEOH      843             0.0000000000
     23035      1535  MEOH      O1             -4.9671617173       20.7515237900      -19.1556326955  MEOH      843             0.0000000000
     23036      1535  MEOH      DO1            -4.9597693848       20.7562583234      -19.1633509567  MEOH      843             0.0000000000
     23037      1535  MEOH      HO1            -5.1491407238       21.4814756575      -18.5432978910  MEOH      843             0.0000000000
     23038      1535  MEOH      HO2            -4.0830533464       20.6415036045      -19.5392313756  MEOH      843             0.0000000000
     23039      1535  MEOH      H1A            -5.1105055207       18.6609842113      -19.0752421284  MEOH      843             0.0000000000
     23040      1535  MEOH      H1B            -6.2447380922       19.5548902600      -18.0152321249  MEOH      843             0.0000000000
     23041      1535  MEOH      H1C            -4.4787274621       19.4751487690      -17.5923657669  MEOH      843             0.0000000000
     23042      1535  MEOH      LP1A           -4.6313758980       20.8449428933      -19.1236834440  MEOH      843             0.0000000000
     23043      1535  MEOH      LP1B           -5.2590517291       20.8530727317      -19.3199130457  MEOH      843             0.0000000000
     23044      1536  MEOH      C1              0.8252229712      -24.1878881426        4.3440276784  MEOH      844             0.0000000000
     23045      1536  MEOH      DC1             0.8258626596      -24.1877465122        4.3458847838  MEOH      844             0.0000000000
     23046      1536  MEOH      O1              1.5228977601      -23.4793057930        5.3689339756  MEOH      844             0.0000000000
     23047      1536  MEOH      DO1             1.5309892974      -23.4831534422        5.3656877223  MEOH      844             0.0000000000
     23048      1536  MEOH      HO1             0.8865676686      -23.1792964334        6.0367501170  MEOH      844             0.0000000000
     23049      1536  MEOH      HO2             2.2913858420      -24.0201776427        5.6093164039  MEOH      844             0.0000000000
     23050      1536  MEOH      H1A             1.5065282343      -24.3510713510        3.4817542998  MEOH      844             0.0000000000
     23051      1536  MEOH      H1B            -0.0470552425      -23.5945845193        3.9955416265  MEOH      844             0.0000000000
     23052      1536  MEOH      H1C             0.4821386622      -25.1756886332        4.7193466748  MEOH      844             0.0000000000
     23053      1536  MEOH      LP1A            1.6279688366      -23.7016857807        5.6179464451  MEOH      844             0.0000000000
     23054      1536  MEOH      LP1B            1.5447047774      -23.1399152626        5.2862386200  MEOH      844             0.0000000000
     23055      1537  MEOH      C1             31.8481786448       -7.6348156555      -33.0085918017  MEOH      845             0.0000000000
     23056      1537  MEOH      DC1            31.8671906939       -7.6333822590      -33.0055718057  MEOH      845             0.0000000000
     23057      1537  MEOH      O1             32.3774347702       -6.6978728036      -32.0659716367  MEOH      845             0.0000000000
     23058      1537  MEOH      DO1            32.4059184741       -6.6958786724      -32.0614178674  MEOH      845             0.0000000000
     23059      1537  MEOH      HO1            31.6904965712       -6.0175255029      -31.9875914017  MEOH      845             0.0000000000
     23060      1537  MEOH      HO2            32.6105783380       -7.2221145895      -31.2838497615  MEOH      845             0.0000000000
     23061      1537  MEOH      H1A            32.5337969340       -8.5025731743      -33.1146363719  MEOH      845             0.0000000000
     23062      1537  MEOH      H1B            31.7258063742       -7.1518502544      -34.0016126719  MEOH      845             0.0000000000
     23063      1537  MEOH      H1C            30.8524673640       -7.9993908151      -32.6769820916  MEOH      845             0.0000000000
     23064      1537  MEOH      LP1A           32.2874611258       -6.7913184513      -31.7408983308  MEOH      845             0.0000000000
     23065      1537  MEOH      LP1B           32.5654803638       -6.4539943859      -32.2322911248  MEOH      845             0.0000000000
     23066      1538  MEOH      C1             26.0033578265      -30.3036970636      -20.9118627857  MEOH      846             0.0000000000
     23067      1538  MEOH      DC1            25.9817560566      -30.3082132531      -20.8972131511  MEOH      846             0.0000000000
     23068      1538  MEOH      O1             24.9781617789      -29.6635681725      -20.1453223467  MEOH      846             0.0000000000
     23069      1538  MEOH      DO1            24.9616922721      -29.6687448309      -20.1284193365  MEOH      846             0.0000000000
     23070      1538  MEOH      HO1            24.8142397630      -28.8194187278      -20.5941444580  MEOH      846             0.0000000000
     23071      1538  MEOH      HO2            24.2693131661      -30.3170694989      -20.0386937294  MEOH      846             0.0000000000
     23072      1538  MEOH      H1A            26.3455008926      -31.2299655096      -20.4026615601  MEOH      846             0.0000000000
     23073      1538  MEOH      H1B            26.8760607480      -29.6262166642      -21.0290418013  MEOH      846             0.0000000000
     23074      1538  MEOH      H1C            25.6175111020      -30.5616518173      -21.9212698646  MEOH      846             0.0000000000
     23075      1538  MEOH      LP1A           24.6629328943      -29.7583023260      -20.2643021367  MEOH      846             0.0000000000
     23076      1538  MEOH      LP1B           25.1216693013      -29.4707099120      -19.8909382230  MEOH      846             0.0000000000
     23077      1539  MEOH      C1             28.2660906315        3.9293943900       23.4012921778  MEOH      847             0.0000000000
     23078      1539  MEOH      DC1            28.2848359392        3.9396962265       23.4125097832  MEOH      847             0.0000000000
     23079      1539  MEOH      O1             29.3355788176        4.8466220742       23.1477496480  MEOH      847             0.0000000000
     23080      1539  MEOH      DO1            29.3564213714        4.8546278320       23.1574672222  MEOH      847             0.0000000000
     23081      1539  MEOH      HO1            29.6277133909        4.6273564632       22.2491507472  MEOH      847             0.0000000000
     23082      1539  MEOH      HO2            28.9613364980        5.7261804474       23.3127337518  MEOH      847             0.0000000000
     23083      1539  MEOH      H1A            27.8210598347        4.1206124605       24.4011442870  MEOH      847             0.0000000000
     23084      1539  MEOH      H1B            28.6422777555        2.8850193477       23.3556301721  MEOH      847             0.0000000000
     23085      1539  MEOH      H1C            27.4692015952        4.0463910812       22.6360467009  MEOH      847             0.0000000000
     23086      1539  MEOH      LP1A           29.2094493844        5.1421894365       23.0090726837  MEOH      847             0.0000000000
     23087      1539  MEOH      LP1B           29.6391627718        4.7089792832       23.2544794228  MEOH      847             0.0000000000
     23088      1540  MEOH      C1             28.1767517592       -0.6716471416      -12.7026233288  MEOH      848             0.0000000000
     23089      1540  MEOH      DC1            28.1856181214       -0.6795098644      -12.7077243021  MEOH      848             0.0000000000
     23090      1540  MEOH      O1             29.4143666320       -1.3529290011      -12.4918236255  MEOH      848             0.0000000000
     23091      1540  MEOH      DO1            29.4223398901       -1.3577112215      -12.4947735082  MEOH      848             0.0000000000
     23092      1540  MEOH      HO1            29.3539558193       -2.1854020554      -12.9860291978  MEOH      848             0.0000000000
     23093      1540  MEOH      HO2            30.1109273296       -0.7092797062      -12.6953396700  MEOH      848             0.0000000000
     23094      1540  MEOH      H1A            28.1420529986        0.2596545325      -12.0978141121  MEOH      848             0.0000000000
     23095      1540  MEOH      H1B            27.3296702797       -1.3236633014      -12.3998876446  MEOH      848             0.0000000000
     23096      1540  MEOH      H1C            28.0651722109       -0.4079423194      -13.7760900366  MEOH      848             0.0000000000
     23097      1540  MEOH      LP1A           29.6465431806       -1.2576173479      -12.7357698061  MEOH      848             0.0000000000
     23098      1540  MEOH      LP1B           29.3932774707       -1.5537665914      -12.2059573812  MEOH      848             0.0000000000
     23099      1541  MEOH      C1             13.5483822059       33.0944603822      -27.6411913337  MEOH      849             0.0000000000
     23100      1541  MEOH      DC1            13.5433718319       33.0991041770      -27.6457271729  MEOH      849             0.0000000000
     23101      1541  MEOH      O1             13.3472619640       31.7425662860      -27.2418419629  MEOH      849             0.0000000000
     23102      1541  MEOH      DO1            13.3479365251       31.7462886047      -27.2393989992  MEOH      849             0.0000000000
     23103      1541  MEOH      HO1            12.7735099284       31.3121002182      -27.8948408656  MEOH      849             0.0000000000
     23104      1541  MEOH      HO2            14.2255410273       31.3893835147      -27.0302106396  MEOH      849             0.0000000000
     23105      1541  MEOH      H1A            14.0972763913       33.6408646256      -26.8446496985  MEOH      849             0.0000000000
     23106      1541  MEOH      H1B            12.5613625881       33.5806466763      -27.7952567796  MEOH      849             0.0000000000
     23107      1541  MEOH      H1C            14.1454837095       33.1288089617      -28.5774663848  MEOH      849             0.0000000000
     23108      1541  MEOH      LP1A           13.5983366826       31.5393268104      -27.3765832008  MEOH      849             0.0000000000
     23109      1541  MEOH      LP1B           13.0689884799       31.7202405518      -27.0307367055  MEOH      849             0.0000000000
     23110      1542  MEOH      C1            -24.0761079768        6.6509078219       -8.8675380584  MEOH      850             0.0000000000
     23111      1542  MEOH      DC1           -24.0819715861        6.6505692032       -8.8534626031  MEOH      850             0.0000000000
     23112      1542  MEOH      O1            -23.4600896640        6.4103598607      -10.1316796252  MEOH      850             0.0000000000
     23113      1542  MEOH      DO1           -23.4664238784        6.4086658424      -10.1246291586  MEOH      850             0.0000000000
     23114      1542  MEOH      HO1           -23.4774580849        7.2434925963      -10.6281553887  MEOH      850             0.0000000000
     23115      1542  MEOH      HO2           -22.6078336999        5.9930187888       -9.9307164410  MEOH      850             0.0000000000
     23116      1542  MEOH      H1A           -24.0662732647        5.7072920206       -8.2811819390  MEOH      850             0.0000000000
     23117      1542  MEOH      H1B           -25.1315731570        6.9666197603       -9.0112051230  MEOH      850             0.0000000000
     23118      1542  MEOH      H1C           -23.5137864239        7.4333524071       -8.3144594525  MEOH      850             0.0000000000
     23119      1542  MEOH      LP1A          -23.1153192164        6.4663803914      -10.1094301620  MEOH      850             0.0000000000
     23120      1542  MEOH      LP1B          -23.6997043317        6.3030218723      -10.3631172351  MEOH      850             0.0000000000
     23121      1543  MEOH      C1            -18.5876362832       11.5617773835        8.4152537167  MEOH      851             0.0000000000
     23122      1543  MEOH      DC1           -18.5833761138       11.5934743840        8.3808132955  MEOH      851             0.0000000000
     23123      1543  MEOH      O1            -18.5199176604       10.9820941217        9.7116747111  MEOH      851             0.0000000000
     23124      1543  MEOH      DO1           -18.5007378304       11.0155045054        9.6758507135  MEOH      851             0.0000000000
     23125      1543  MEOH      HO1           -18.9815183509       10.1299618197        9.7528492520  MEOH      851             0.0000000000
     23126      1543  MEOH      HO2           -17.6009297023       11.0684473611       10.0098428699  MEOH      851             0.0000000000
     23127      1543  MEOH      H1A           -18.3133688295       12.6340147520        8.5122351113  MEOH      851             0.0000000000
     23128      1543  MEOH      H1B           -19.6160145895       11.4859030350        8.0017296633  MEOH      851             0.0000000000
     23129      1543  MEOH      H1C           -17.8730467739       11.0411541174        7.7424727360  MEOH      851             0.0000000000
     23130      1543  MEOH      LP1A          -18.2332354633       10.7831856292        9.7390376322  MEOH      851             0.0000000000
     23131      1543  MEOH      LP1B          -18.7890845635       11.0923726100        9.9063226839  MEOH      851             0.0000000000
     23132      1544  MEOH      C1             20.6836445640        0.4725878101      -20.4944859413  MEOH      852             0.0000000000
     23133      1544  MEOH      DC1            20.6729938827        0.4550192871      -20.4871485927  MEOH      852             0.0000000000
     23134      1544  MEOH      O1             20.5469200241       -0.4805466626      -19.4430455988  MEOH      852             0.0000000000
     23135      1544  MEOH      DO1            20.5458243928       -0.4942436847      -19.4390513474  MEOH      852             0.0000000000
     23136      1544  MEOH      HO1            20.2708127054       -1.3266780621      -19.8286962237  MEOH      852             0.0000000000
     23137      1544  MEOH      HO2            21.3668050523       -0.4233554221      -18.9278585429  MEOH      852             0.0000000000
     23138      1544  MEOH      H1A            20.9443577808        1.4620048168      -20.0615845588  MEOH      852             0.0000000000
     23139      1544  MEOH      H1B            19.7235106225        0.5714283414      -21.0446626077  MEOH      852             0.0000000000
     23140      1544  MEOH      H1C            21.4866980050        0.1670577724      -21.1988136825  MEOH      852             0.0000000000
     23141      1544  MEOH      LP1A           20.8522119944       -0.6425899041      -19.3879202797  MEOH      852             0.0000000000
     23142      1544  MEOH      LP1B           20.2217460609       -0.4705662250      -19.3139631271  MEOH      852             0.0000000000
     23143      1545  MEOH      C1            -27.7129259864       36.5649058659       14.3869876026  MEOH      853             0.0000000000
     23144      1545  MEOH      DC1           -27.7230617567       36.5549965617       14.3780944466  MEOH      853             0.0000000000
     23145      1545  MEOH      O1            -26.7409592843       36.3381433827       15.3949880975  MEOH      853             0.0000000000
     23146      1545  MEOH      DO1           -26.7436405805       36.3345729166       15.3799218825  MEOH      853             0.0000000000
     23147      1545  MEOH      HO1           -25.8560831586       36.4518118988       15.0142339635  MEOH      853             0.0000000000
     23148      1545  MEOH      HO2           -27.0193944722       36.8708830541       16.1562779828  MEOH      853             0.0000000000
     23149      1545  MEOH      H1A           -28.7066594007       36.3732382746       14.8453307446  MEOH      853             0.0000000000
     23150      1545  MEOH      H1B           -27.5532373484       35.8756503128       13.5303970799  MEOH      853             0.0000000000
     23151      1545  MEOH      H1C           -27.6600862244       37.6171377468       14.0343730407  MEOH      853             0.0000000000
     23152      1545  MEOH      LP1A          -26.6702573405       36.6371844714       15.5625460349  MEOH      853             0.0000000000
     23153      1545  MEOH      LP1B          -26.6559732729       35.9987703614       15.4051532482  MEOH      853             0.0000000000
     23154      1546  MEOH      C1            -21.3241681093      -36.2083306677      -19.5128670172  MEOH      854             0.0000000000
     23155      1546  MEOH      DC1           -21.3168402931      -36.1988349383      -19.5124114757  MEOH      854             0.0000000000
     23156      1546  MEOH      O1            -20.3850160485      -37.2202760419      -19.8893538626  MEOH      854             0.0000000000
     23157      1546  MEOH      DO1           -20.3735421185      -37.2087456269      -19.8915477366  MEOH      854             0.0000000000
     23158      1546  MEOH      HO1           -20.0236049693      -36.9854363548      -20.7583373802  MEOH      854             0.0000000000
     23159      1546  MEOH      HO2           -19.8174701884      -37.3830494413      -19.1197458344  MEOH      854             0.0000000000
     23160      1546  MEOH      H1A           -21.8046986210      -36.4741964963      -18.5470892012  MEOH      854             0.0000000000
     23161      1546  MEOH      H1B           -22.1134650116      -36.1125957414      -20.2888607185  MEOH      854             0.0000000000
     23162      1546  MEOH      H1C           -20.8072974804      -35.2348172615      -19.3734489378  MEOH      854             0.0000000000
     23163      1546  MEOH      LP1A          -20.0664086041      -37.1383118479      -19.7698918716  MEOH      854             0.0000000000
     23164      1546  MEOH      LP1B          -20.5485484958      -37.4771033852      -20.0619715164  MEOH      854             0.0000000000
     23165      1547  MEOH      C1            -26.9375187948        5.5837943237       19.5561812944  MEOH      855             0.0000000000
     23166      1547  MEOH      DC1           -26.9455591680        5.5632703743       19.5536394838  MEOH      855             0.0000000000
     23167      1547  MEOH      O1            -26.7430622773        4.3792882701       20.2998969350  MEOH      855             0.0000000000
     23168      1547  MEOH      DO1           -26.7603596403        4.3648740886       20.3017258866  MEOH      855             0.0000000000
     23169      1547  MEOH      HO1           -26.2917572205        3.7532758023       19.7122472639  MEOH      855             0.0000000000
     23170      1547  MEOH      HO2           -26.2742963444        4.6541902098       21.1033814866  MEOH      855             0.0000000000
     23171      1547  MEOH      H1A           -27.3597978539        6.3732509921       20.2140259309  MEOH      855             0.0000000000
     23172      1547  MEOH      H1B           -27.6229341915        5.4155405891       18.6981501675  MEOH      855             0.0000000000
     23173      1547  MEOH      H1C           -25.9598223581        5.9369950950       19.1641610216  MEOH      855             0.0000000000
     23174      1547  MEOH      LP1A          -26.4382431947        4.3923849316       20.4714014665  MEOH      855             0.0000000000
     23175      1547  MEOH      LP1B          -27.0204075550        4.1691670980       20.2620989196  MEOH      855             0.0000000000
     23176      1548  MEOH      C1            -22.5306510400       27.5276447972       15.1510568620  MEOH      856             0.0000000000
     23177      1548  MEOH      DC1           -22.5275351636       27.5413732928       15.1499280906  MEOH      856             0.0000000000
     23178      1548  MEOH      O1            -21.4889302918       27.4141268071       14.1822126006  MEOH      856             0.0000000000
     23179      1548  MEOH      DO1           -21.4821467638       27.4300531154       14.1871071794  MEOH      856             0.0000000000
     23180      1548  MEOH      HO1           -20.7755770592       26.9054619562       14.5984904345  MEOH      856             0.0000000000
     23181      1548  MEOH      HO2           -21.9134157084       27.0254853689       13.4013989450  MEOH      856             0.0000000000
     23182      1548  MEOH      H1A           -23.4112265765       28.0246127915       14.6906977203  MEOH      856             0.0000000000
     23183      1548  MEOH      H1B           -22.1780193602       28.1275621957       16.0171232648  MEOH      856             0.0000000000
     23184      1548  MEOH      H1C           -22.8343947394       26.5180023823       15.5013181347  MEOH      856             0.0000000000
     23185      1548  MEOH      LP1A          -21.5386367445       27.1286743712       13.9858808013  MEOH      856             0.0000000000
     23186      1548  MEOH      LP1B          -21.2707683579       27.6865466962       14.2085332127  MEOH      856             0.0000000000
     23187      1549  MEOH      C1             27.7705325257       25.6859380865       22.0117396303  MEOH      857             0.0000000000
     23188      1549  MEOH      DC1            27.7686142258       25.6838603069       21.9946967936  MEOH      857             0.0000000000
     23189      1549  MEOH      O1             27.1960917629       24.8016612695       21.0480461858  MEOH      857             0.0000000000
     23190      1549  MEOH      DO1            27.1956603647       24.8046742668       21.0392839331  MEOH      857             0.0000000000
     23191      1549  MEOH      HO1            27.3539114531       23.9022139099       21.3751354593  MEOH      857             0.0000000000
     23192      1549  MEOH      HO2            26.2897431097       25.1164192270       20.9053592974  MEOH      857             0.0000000000
     23193      1549  MEOH      H1A            27.7002105384       26.7339468528       21.6497265845  MEOH      857             0.0000000000
     23194      1549  MEOH      H1B            28.8397895296       25.4305774574       22.1723678001  MEOH      857             0.0000000000
     23195      1549  MEOH      H1C            27.2298162553       25.6039875235       22.9788130609  MEOH      857             0.0000000000
     23196      1549  MEOH      LP1A           26.8604311008       24.7409192511       21.1264191856  MEOH      857             0.0000000000
     23197      1549  MEOH      LP1B           27.4321792609       24.7232115215       20.8018585940  MEOH      857             0.0000000000
     23198      1550  MEOH      C1            -18.4741549107       34.3396665117      -19.9539922691  MEOH      858             0.0000000000
     23199      1550  MEOH      DC1           -18.4625501468       34.3407881675      -19.9664564026  MEOH      858             0.0000000000
     23200      1550  MEOH      O1            -17.2945373995       34.8901281712      -20.5406100068  MEOH      858             0.0000000000
     23201      1550  MEOH      DO1           -17.2850269051       34.9022530367      -20.5417501723  MEOH      858             0.0000000000
     23202      1550  MEOH      HO1           -17.5058347242       35.8061595908      -20.7796494995  MEOH      858             0.0000000000
     23203      1550  MEOH      HO2           -16.5540745427       34.6700113484      -19.9539556430  MEOH      858             0.0000000000
     23204      1550  MEOH      H1A           -18.3447604656       33.2510781229      -19.7735666672  MEOH      858             0.0000000000
     23205      1550  MEOH      H1B           -19.3594258087       34.5073619773      -20.6039881676  MEOH      858             0.0000000000
     23206      1550  MEOH      H1C           -18.6697487440       34.8478476155      -18.9855832545  MEOH      858             0.0000000000
     23207      1550  MEOH      LP1A          -17.0923954603       35.0318448844      -20.2925071861  MEOH      858             0.0000000000
     23208      1550  MEOH      LP1B          -17.2934481323       34.8307190176      -20.8855293684  MEOH      858             0.0000000000
     23209      1551  MEOH      C1             34.1786794750        2.3966776442       -4.5501642181  MEOH      859             0.0000000000
     23210      1551  MEOH      DC1            34.1807942581        2.3756128461       -4.5460450847  MEOH      859             0.0000000000
     23211      1551  MEOH      O1             33.9588988130        1.0234155161       -4.8566153215  MEOH      859             0.0000000000
     23212      1551  MEOH      DO1            33.9601326252        1.0080562708       -4.8505750931  MEOH      859             0.0000000000
     23213      1551  MEOH      HO1            34.2646764401        0.5070433294       -4.0945393360  MEOH      859             0.0000000000
     23214      1551  MEOH      HO2            33.0467882007        0.9583865586       -5.1802284652  MEOH      859             0.0000000000
     23215      1551  MEOH      H1A            33.9674679380        3.0137338333       -5.4495819998  MEOH      859             0.0000000000
     23216      1551  MEOH      H1B            35.2351779252        2.5725733158       -4.2548800513  MEOH      859             0.0000000000
     23217      1551  MEOH      H1C            33.5019154281        2.7191624962       -3.7302160821  MEOH      859             0.0000000000
     23218      1551  MEOH      LP1A           33.6380368528        0.9278539155       -4.7545585579  MEOH      859             0.0000000000
     23219      1551  MEOH      LP1B           34.2384756945        0.8910813563       -5.0203969977  MEOH      859             0.0000000000
     23220      1552  MEOH      C1            -15.9929463181       12.9416565090       25.6401461720  MEOH      860             0.0000000000
     23221      1552  MEOH      DC1           -15.9955939435       12.9580406081       25.6379501256  MEOH      860             0.0000000000
     23222      1552  MEOH      O1            -17.1069003385       13.8342472160       25.6015984688  MEOH      860             0.0000000000
     23223      1552  MEOH      DO1           -17.1047685034       13.8550907671       25.6061732838  MEOH      860             0.0000000000
     23224      1552  MEOH      HO1           -17.6444628540       13.6239323452       26.3811458997  MEOH      860             0.0000000000
     23225      1552  MEOH      HO2           -16.7510864277       14.7202941084       25.4306675859  MEOH      860             0.0000000000
     23226      1552  MEOH      H1A           -15.4474224381       12.9770554906       24.6729483586  MEOH      860             0.0000000000
     23227      1552  MEOH      H1B           -16.3387133594       11.8994093242       25.8089269748  MEOH      860             0.0000000000
     23228      1552  MEOH      H1C           -15.3011053429       13.2248054805       26.4620365084  MEOH      860             0.0000000000
     23229      1552  MEOH      LP1A          -17.0284352877       14.1309461607       25.7698630583  MEOH      860             0.0000000000
     23230      1552  MEOH      LP1B          -17.3680765825       13.6918426953       25.4171860992  MEOH      860             0.0000000000
     23231      1553  MEOH      C1              5.8738672251      -25.0491858799        5.4417894622  MEOH      861             0.0000000000
     23232      1553  MEOH      DC1             5.8695009901      -25.0439899709        5.4507802324  MEOH      861             0.0000000000
     23233      1553  MEOH      O1              4.7691196624      -24.3097264255        5.9729604490  MEOH      861             0.0000000000
     23234      1553  MEOH      DO1             4.7623457016      -24.3146429191        5.9865697378  MEOH      861             0.0000000000
     23235      1553  MEOH      HO1             4.3311355207      -23.8640345117        5.2310516881  MEOH      861             0.0000000000
     23236      1553  MEOH      HO2             4.2949483092      -24.8966900491        6.5824973494  MEOH      861             0.0000000000
     23237      1553  MEOH      H1A             6.5195822463      -25.3882289797        6.2798961904  MEOH      861             0.0000000000
     23238      1553  MEOH      H1B             6.4994778119      -24.4029545738        4.7896257601  MEOH      861             0.0000000000
     23239      1553  MEOH      H1C             5.5154344136      -25.9323507894        4.8709421420  MEOH      861             0.0000000000
     23240      1553  MEOH      LP1A            4.4829693592      -24.5111130555        5.9807981275  MEOH      861             0.0000000000
     23241      1553  MEOH      LP1B            4.8731450744      -23.9883286293        6.0645146422  MEOH      861             0.0000000000
     23242      1554  MEOH      C1              3.5169204850      -13.0182554612       13.4507022374  MEOH      862             0.0000000000
     23243      1554  MEOH      DC1             3.5097307793      -13.0282603472       13.4443675322  MEOH      862             0.0000000000
     23244      1554  MEOH      O1              4.5112998693      -12.7440458070       14.4322532140  MEOH      862             0.0000000000
     23245      1554  MEOH      DO1             4.5096327013      -12.7471249767       14.4278032242  MEOH      862             0.0000000000
     23246      1554  MEOH      HO1             4.0765526485      -12.3543889836       15.2068901715  MEOH      862             0.0000000000
     23247      1554  MEOH      HO2             5.0420481272      -13.5521675031       14.5106471613  MEOH      862             0.0000000000
     23248      1554  MEOH      H1A             4.0222650401      -13.3097690909       12.5052035933  MEOH      862             0.0000000000
     23249      1554  MEOH      H1B             2.8947518628      -12.1178047892       13.2598730121  MEOH      862             0.0000000000
     23250      1554  MEOH      H1C             2.8686530486      -13.8506120073       13.7989161244  MEOH      862             0.0000000000
     23251      1554  MEOH      LP1A            4.5562803646      -13.0233266398       14.6383574873  MEOH      862             0.0000000000
     23252      1554  MEOH      LP1B            4.6415974299      -12.4227839766       14.3841555834  MEOH      862             0.0000000000
     23253      1555  MEOH      C1             15.7505585324        7.3719112180        1.2016984169  MEOH      863             0.0000000000
     23254      1555  MEOH      DC1            15.7622456791        7.3751457792        1.2037615087  MEOH      863             0.0000000000
     23255      1555  MEOH      O1             16.5567010583        8.3476038923        0.5437711912  MEOH      863             0.0000000000
     23256      1555  MEOH      DO1            16.5727549301        8.3489724941        0.5566787645  MEOH      863             0.0000000000
     23257      1555  MEOH      HO1            15.9506553496        8.9545624601        0.0907702023  MEOH      863             0.0000000000
     23258      1555  MEOH      HO2            17.1827713538        8.6812702989        1.2052866605  MEOH      863             0.0000000000
     23259      1555  MEOH      H1A            16.4020098485        6.5877425119        1.6432996212  MEOH      863             0.0000000000
     23260      1555  MEOH      H1B            15.0590215347        6.8966607445        0.4735263437  MEOH      863             0.0000000000
     23261      1555  MEOH      H1C            15.1557057428        7.8528149488        2.0074296137  MEOH      863             0.0000000000
     23262      1555  MEOH      LP1A           16.6184909205        8.6166497534        0.7589370286  MEOH      863             0.0000000000
     23263      1555  MEOH      LP1B           16.6396786976        8.2371950117        0.2221742534  MEOH      863             0.0000000000
     23264      1556  MEOH      C1             -5.1170100236       29.3017450784      -35.9729359505  MEOH      864             0.0000000000
     23265      1556  MEOH      DC1            -5.1251488744       29.3108257798      -35.9750789332  MEOH      864             0.0000000000
     23266      1556  MEOH      O1             -5.5389556129       28.0410849147      -36.5166612520  MEOH      864             0.0000000000
     23267      1556  MEOH      DO1            -5.5512312208       28.0487962395      -36.5240749864  MEOH      864             0.0000000000
     23268      1556  MEOH      HO1            -5.0363623620       27.9067747947      -37.3353558323  MEOH      864             0.0000000000
     23269      1556  MEOH      HO2            -5.3927977741       27.3935428353      -35.8093938749  MEOH      864             0.0000000000
     23270      1556  MEOH      H1A            -5.3811811835       29.3738795298      -34.8962135076  MEOH      864             0.0000000000
     23271      1556  MEOH      H1B            -5.5924525645       30.1364060161      -36.5311621693  MEOH      864             0.0000000000
     23272      1556  MEOH      H1C            -4.0164589461       29.4278871034      -36.0577682327  MEOH      864             0.0000000000
     23273      1556  MEOH      LP1A           -5.3412886990       27.7827874069      -36.3873933575  MEOH      864             0.0000000000
     23274      1556  MEOH      LP1B           -5.8141865526       28.0878649435      -36.7277526037  MEOH      864             0.0000000000
     23275      1557  MEOH      C1            -34.8223931028      -11.1610455494        8.5134972341  MEOH      865             0.0000000000
     23276      1557  MEOH      DC1           -34.8269789863      -11.1667285851        8.5119104948  MEOH      865             0.0000000000
     23277      1557  MEOH      O1            -33.4718376212      -10.7811200836        8.7739834545  MEOH      865             0.0000000000
     23278      1557  MEOH      DO1           -33.4733737979      -10.7782452711        8.7759976018  MEOH      865             0.0000000000
     23279      1557  MEOH      HO1           -33.2825107910      -11.0161709141        9.6958329316  MEOH      865             0.0000000000
     23280      1557  MEOH      HO2           -32.9444092030      -11.1505445523        8.0485561139  MEOH      865             0.0000000000
     23281      1557  MEOH      H1A           -35.1161290225      -10.8302224271        7.4943817985  MEOH      865             0.0000000000
     23282      1557  MEOH      H1B           -35.4749980209      -10.6516545910        9.2544079391  MEOH      865             0.0000000000
     23283      1557  MEOH      H1C           -34.9481801541      -12.2621766327        8.5910146913  MEOH      865             0.0000000000
     23284      1557  MEOH      LP1A          -33.2557781415      -11.0444997197        8.6936748716  MEOH      865             0.0000000000
     23285      1557  MEOH      LP1B          -33.4603067515      -10.4501473131        8.8872268393  MEOH      865             0.0000000000
     23286      1558  MEOH      C1             -4.4687316327      -36.2444003822       13.1756270844  MEOH      866             0.0000000000
     23287      1558  MEOH      DC1            -4.4660935505      -36.2444891626       13.1727565965  MEOH      866             0.0000000000
     23288      1558  MEOH      O1             -3.3692238196      -36.6284092997       14.0230526961  MEOH      866             0.0000000000
     23289      1558  MEOH      DO1            -3.3623085936      -36.6096152894       14.0256468984  MEOH      866             0.0000000000
     23290      1558  MEOH      HO1            -3.0279231447      -37.4851567326       13.7223906145  MEOH      866             0.0000000000
     23291      1558  MEOH      HO2            -2.8064605712      -35.8469846296       14.1395559628  MEOH      866             0.0000000000
     23292      1558  MEOH      H1A            -5.1129179995      -35.5066718493       13.7001283120  MEOH      866             0.0000000000
     23293      1558  MEOH      H1B            -5.0991618969      -37.1261135886       12.9317818383  MEOH      866             0.0000000000
     23294      1558  MEOH      H1C            -4.1025048062      -35.7940051269       12.2283451699  MEOH      866             0.0000000000
     23295      1558  MEOH      LP1A           -3.0693010568      -36.5014126419       13.8949192296  MEOH      866             0.0000000000
     23296      1558  MEOH      LP1B           -3.4876711645      -36.8095682447       14.2981011703  MEOH      866             0.0000000000
     23297      1559  MEOH      C1             27.4006069448       21.2017541907      -15.2087003278  MEOH      867             0.0000000000
     23298      1559  MEOH      DC1            27.3950346260       21.1990622389      -15.2006248294  MEOH      867             0.0000000000
     23299      1559  MEOH      O1             26.9924764280       22.3417968147      -15.9579371420  MEOH      867             0.0000000000
     23300      1559  MEOH      DO1            26.9967483857       22.3337115709      -15.9624347226  MEOH      867             0.0000000000
     23301      1559  MEOH      HO1            27.7787055240       22.8816223843      -16.1349460767  MEOH      867             0.0000000000
     23302      1559  MEOH      HO2            26.4232189237       22.0102538127      -16.6699238921  MEOH      867             0.0000000000
     23303      1559  MEOH      H1A            26.4788615419       20.6570020718      -14.9121340768  MEOH      867             0.0000000000
     23304      1559  MEOH      H1B            27.9790578822       21.4909970271      -14.3053432022  MEOH      867             0.0000000000
     23305      1559  MEOH      H1C            28.0276904820       20.5279554888      -15.8308599112  MEOH      867             0.0000000000
     23306      1559  MEOH      LP1A           27.0034750733       22.2702103767      -16.3003614572  MEOH      867             0.0000000000
     23307      1559  MEOH      LP1B           26.9020023602       22.6013342232      -15.7412466331  MEOH      867             0.0000000000
     23308      1560  MEOH      C1              7.6012043871       10.1545668434      -21.8379276077  MEOH      868             0.0000000000
     23309      1560  MEOH      DC1             7.5916595722       10.1523183788      -21.8479104442  MEOH      868             0.0000000000
     23310      1560  MEOH      O1              8.6929534946       10.6478186672      -21.0591645153  MEOH      868             0.0000000000
     23311      1560  MEOH      DO1             8.6793509397       10.6453631843      -21.0633146516  MEOH      868             0.0000000000
     23312      1560  MEOH      HO1             9.3140799366       11.1219438313      -21.6338881651  MEOH      868             0.0000000000
     23313      1560  MEOH      HO2             8.3015950279       11.0806691414      -20.2843232299  MEOH      868             0.0000000000
     23314      1560  MEOH      H1A             6.9889092159        9.4714620947      -21.2112031649  MEOH      868             0.0000000000
     23315      1560  MEOH      H1B             7.9803384684        9.5889664559      -22.7158083232  MEOH      868             0.0000000000
     23316      1560  MEOH      H1C             6.9589780306       10.9969241818      -22.1730401579  MEOH      868             0.0000000000
     23317      1560  MEOH      LP1A            8.6177126552       10.9666761237      -20.9360030825  MEOH      868             0.0000000000
     23318      1560  MEOH      LP1B            8.9464387598       10.4070613998      -21.0423967328  MEOH      868             0.0000000000
     23319      1561  MEOH      C1            -22.5821276712       19.4730562660        7.3919008062  MEOH      869             0.0000000000
     23320      1561  MEOH      DC1           -22.5988501784       19.4721849449        7.3928038405  MEOH      869             0.0000000000
     23321      1561  MEOH      O1            -22.0994985507       20.4919105414        8.2585338738  MEOH      869             0.0000000000
     23322      1561  MEOH      DO1           -22.1125124383       20.4902217894        8.2618110011  MEOH      869             0.0000000000
     23323      1561  MEOH      HO1           -22.8513325158       21.0104474519        8.5852832627  MEOH      869             0.0000000000
     23324      1561  MEOH      HO2           -21.4709316827       20.0696109492        8.8647242292  MEOH      869             0.0000000000
     23325      1561  MEOH      H1A           -21.7187104912       19.0254768110        6.8547747447  MEOH      869             0.0000000000
     23326      1561  MEOH      H1B           -23.2727297674       19.8988689561        6.6329058799  MEOH      869             0.0000000000
     23327      1561  MEOH      H1C           -23.0867648182       18.6791970758        7.9830437126  MEOH      869             0.0000000000
     23328      1561  MEOH      LP1A          -22.0828588013       20.3718223615        8.5868659432  MEOH      869             0.0000000000
     23329      1561  MEOH      LP1B          -22.0241303184       20.7798783983        8.0744302536  MEOH      869             0.0000000000
     23330      1562  MEOH      C1              3.4313213957      -30.5469991039       12.8697804519  MEOH      870             0.0000000000
     23331      1562  MEOH      DC1             3.4366124911      -30.5307675633       12.8935107128  MEOH      870             0.0000000000
     23332      1562  MEOH      O1              2.3388283948      -29.6526880732       13.1192191592  MEOH      870             0.0000000000
     23333      1562  MEOH      DO1             2.3622047332      -29.6289439921       13.1321468328  MEOH      870             0.0000000000
     23334      1562  MEOH      HO1             1.5228945710      -30.1682741558       13.2157747774  MEOH      870             0.0000000000
     23335      1562  MEOH      HO2             2.6395110222      -29.0004774672       13.7712247443  MEOH      870             0.0000000000
     23336      1562  MEOH      H1A             4.2881170271      -29.9863554252       12.4386181712  MEOH      870             0.0000000000
     23337      1562  MEOH      H1B             3.1469986762      -31.3248543899       12.1292247516  MEOH      870             0.0000000000
     23338      1562  MEOH      H1C             3.7536372680      -31.0446857863       13.8093236637  MEOH      870             0.0000000000
     23339      1562  MEOH      LP1A            2.3049882226      -29.5980807327       13.4632727613  MEOH      870             0.0000000000
     23340      1562  MEOH      LP1B            2.1974284622      -29.5490243011       12.8163002238  MEOH      870             0.0000000000
     23341      1563  MEOH      C1             -7.2202238856       13.0736020286      -19.2026845768  MEOH      871             0.0000000000
     23342      1563  MEOH      DC1            -7.2102533342       13.0929512774      -19.2121569702  MEOH      871             0.0000000000
     23343      1563  MEOH      O1             -7.2427931893       13.6083448903      -17.8773211410  MEOH      871             0.0000000000
     23344      1563  MEOH      DO1            -7.2343798456       13.6377784541      -17.8914383915  MEOH      871             0.0000000000
     23345      1563  MEOH      HO1            -8.1120228451       13.3739207063      -17.5162323595  MEOH      871             0.0000000000
     23346      1563  MEOH      HO2            -6.4776663876       13.2049593729      -17.4382754695  MEOH      871             0.0000000000
     23347      1563  MEOH      H1A            -6.1856119214       13.0966314601      -19.6068735535  MEOH      871             0.0000000000
     23348      1563  MEOH      H1B            -7.8977817850       13.6608194851      -19.8587424652  MEOH      871             0.0000000000
     23349      1563  MEOH      H1C            -7.5726942169       12.0201277900      -19.1860204041  MEOH      871             0.0000000000
     23350      1563  MEOH      LP1A           -7.1153108849       13.3734849145      -17.6512922627  MEOH      871             0.0000000000
     23351      1563  MEOH      LP1B           -7.3634256899       13.9368529957      -17.8828188237  MEOH      871             0.0000000000
     23352      1564  MEOH      C1             21.3624145287       10.1594942111       -3.7702462786  MEOH      872             0.0000000000
     23353      1564  MEOH      DC1            21.3639294108       10.1664267826       -3.7629189579  MEOH      872             0.0000000000
     23354      1564  MEOH      O1             21.3147295505       11.4345679204       -4.4095202792  MEOH      872             0.0000000000
     23355      1564  MEOH      DO1            21.3144611981       11.4370277188       -4.4123532842  MEOH      872             0.0000000000
     23356      1564  MEOH      HO1            20.4824002920       11.8569436367       -4.1454620259  MEOH      872             0.0000000000
     23357      1564  MEOH      HO2            22.1656884632       11.8582253031       -4.2164313074  MEOH      872             0.0000000000
     23358      1564  MEOH      H1A            22.2877952366        9.6149946019       -4.0557488558  MEOH      872             0.0000000000
     23359      1564  MEOH      H1B            20.4873556357        9.5532074060       -4.0880657930  MEOH      872             0.0000000000
     23360      1564  MEOH      H1C            21.3529473889       10.2879000592       -2.6667322038  MEOH      872             0.0000000000
     23361      1564  MEOH      LP1A           21.4666969181       11.6759359846       -4.2066721172  MEOH      872             0.0000000000
     23362      1564  MEOH      LP1B           21.1649559044       11.4050448247       -4.7244746278  MEOH      872             0.0000000000
     23363      1565  MEOH      C1             -6.5130028706       36.3075886915      -31.5176127399  MEOH      873             0.0000000000
     23364      1565  MEOH      DC1            -6.5071693589       36.3097576478      -31.5293265748  MEOH      873             0.0000000000
     23365      1565  MEOH      O1             -7.7464293161       35.9556867789      -30.9252179101  MEOH      873             0.0000000000
     23366      1565  MEOH      DO1            -7.7363688257       35.9627695646      -30.9333715432  MEOH      873             0.0000000000
     23367      1565  MEOH      HO1            -8.4588896951       36.2638894551      -31.5068632648  MEOH      873             0.0000000000
     23368      1565  MEOH      HO2            -7.6723678457       35.0186955513      -30.6855048754  MEOH      873             0.0000000000
     23369      1565  MEOH      H1A            -5.6660161575       36.0210364793      -30.8582021413  MEOH      873             0.0000000000
     23370      1565  MEOH      H1B            -6.4904840122       37.4087367974      -31.6635125376  MEOH      873             0.0000000000
     23371      1565  MEOH      H1C            -6.4120829034       35.7797488605      -32.4899919218  MEOH      873             0.0000000000
     23372      1565  MEOH      LP1A           -7.8425575137       35.6358329499      -31.0298740025  MEOH      873             0.0000000000
     23373      1565  MEOH      LP1B           -7.8537177151       36.2111366245      -30.7113614726  MEOH      873             0.0000000000
     23374      1566  MEOH      C1             16.7416731000      -13.4406719409       33.1158106576  MEOH      874             0.0000000000
     23375      1566  MEOH      DC1            16.7390170276      -13.4566849931       33.1203070977  MEOH      874             0.0000000000
     23376      1566  MEOH      O1             16.4892168683      -14.0728626269       34.3741832646  MEOH      874             0.0000000000
     23377      1566  MEOH      DO1            16.4790267042      -14.0790203123       34.3879630957  MEOH      874             0.0000000000
     23378      1566  MEOH      HO1            16.2109791190      -14.9772109482       34.1605530500  MEOH      874             0.0000000000
     23379      1566  MEOH      HO2            17.2790488970      -13.9071353054       34.9123280610  MEOH      874             0.0000000000
     23380      1566  MEOH      H1A            17.0276086886      -12.3783996707       33.2711794546  MEOH      874             0.0000000000
     23381      1566  MEOH      H1B            15.8206331811      -13.4648281405       32.4949862475  MEOH      874             0.0000000000
     23382      1566  MEOH      H1C            17.5631968874      -13.9661174615       32.5835262670  MEOH      874             0.0000000000
     23383      1566  MEOH      LP1A           16.7827132658      -14.2203148878       34.4950869261  MEOH      874             0.0000000000
     23384      1566  MEOH      LP1B           16.1563276446      -14.0215054535       34.4693000641  MEOH      874             0.0000000000
     23385      1567  MEOH      C1             35.8462792905       -5.1370231984      -26.3366471696  MEOH      875             0.0000000000
     23386      1567  MEOH      DC1            35.8540957207       -5.1326522705      -26.3597139912  MEOH      875             0.0000000000
     23387      1567  MEOH      O1             36.3085129565       -6.2792934864      -27.0586552775  MEOH      875             0.0000000000
     23388      1567  MEOH      DO1            36.3061372230       -6.2838610543      -27.0812054933  MEOH      875             0.0000000000
     23389      1567  MEOH      HO1            35.9638091528       -7.0499392608      -26.5809687922  MEOH      875             0.0000000000
     23390      1567  MEOH      HO2            36.1195651045       -6.1131898708      -27.9954627813  MEOH      875             0.0000000000
     23391      1567  MEOH      H1A            36.1716764765       -4.1843066998      -26.8065077288  MEOH      875             0.0000000000
     23392      1567  MEOH      H1B            36.2328405612       -5.1815172535      -25.2960167535  MEOH      875             0.0000000000
     23393      1567  MEOH      H1C            34.7373293961       -5.0719053062      -26.3542764915  MEOH      875             0.0000000000
     23394      1567  MEOH      LP1A           36.0780957881       -6.3646673959      -27.3078925622  MEOH      875             0.0000000000
     23395      1567  MEOH      LP1B           36.6217029444       -6.3785163791      -26.9379620754  MEOH      875             0.0000000000
     23396      1568  MEOH      C1            -26.9660784155       -0.7506413661       13.7914202864  MEOH      876             0.0000000000
     23397      1568  MEOH      DC1           -26.9810293498       -0.7531934664       13.7826108564  MEOH      876             0.0000000000
     23398      1568  MEOH      O1            -27.2213129942        0.2130177636       14.8039051653  MEOH      876             0.0000000000
     23399      1568  MEOH      DO1           -27.2419919171        0.2087689203       14.8023932116  MEOH      876             0.0000000000
     23400      1568  MEOH      HO1           -26.5063186379        0.8645800046       14.7321436390  MEOH      876             0.0000000000
     23401      1568  MEOH      HO2           -28.1539094787        0.4637777453       14.7128929143  MEOH      876             0.0000000000
     23402      1568  MEOH      H1A           -27.6236412872       -1.6338527064       13.9393047012  MEOH      876             0.0000000000
     23403      1568  MEOH      H1B           -25.9107156883       -1.0960888799       13.8260111794  MEOH      876             0.0000000000
     23404      1568  MEOH      H1C           -27.1512781964       -0.2765550728       12.8038656156  MEOH      876             0.0000000000
     23405      1568  MEOH      LP1A          -27.4281298482        0.4661616306       14.6788253047  MEOH      876             0.0000000000
     23406      1568  MEOH      LP1B          -27.0668710540        0.1164246535       15.1027654306  MEOH      876             0.0000000000
     23407      1569  MEOH      C1              6.4910444715       24.5389103458       -4.2294128339  MEOH      877             0.0000000000
     23408      1569  MEOH      DC1             6.4767897373       24.5363588536       -4.2269344583  MEOH      877             0.0000000000
     23409      1569  MEOH      O1              7.8477841903       24.2902790547       -3.8647666927  MEOH      877             0.0000000000
     23410      1569  MEOH      DO1             7.8379453847       24.2862477585       -3.8590535543  MEOH      877             0.0000000000
     23411      1569  MEOH      HO1             8.3153452886       23.9990591072       -4.6631886122  MEOH      877             0.0000000000
     23412      1569  MEOH      HO2             8.1446829718       25.0851463285       -3.3947271932  MEOH      877             0.0000000000
     23413      1569  MEOH      H1A             5.9232237081       24.8617757127       -3.3307145890  MEOH      877             0.0000000000
     23414      1569  MEOH      H1B             6.0336096782       23.6136341653       -4.6404340031  MEOH      877             0.0000000000
     23415      1569  MEOH      H1C             6.4498165288       25.3478872805       -4.9897927236  MEOH      877             0.0000000000
     23416      1569  MEOH      LP1A            8.0363448163       24.5832388464       -3.8982248864  MEOH      877             0.0000000000
     23417      1569  MEOH      LP1B            7.8845305076       23.9585805591       -3.7592877079  MEOH      877             0.0000000000
     23418      1570  MEOH      C1             21.6505693488      -32.7853624006        2.5257733881  MEOH      878             0.0000000000
     23419      1570  MEOH      DC1            21.6462410101      -32.7902418065        2.5117940650  MEOH      878             0.0000000000
     23420      1570  MEOH      O1             22.6460649074      -33.1106662166        3.4936220879  MEOH      878             0.0000000000
     23421      1570  MEOH      DO1            22.6417176092      -33.1265639891        3.4767211020  MEOH      878             0.0000000000
     23422      1570  MEOH      HO1            22.2335722698      -33.0973079117        4.3714440400  MEOH      878             0.0000000000
     23423      1570  MEOH      HO2            23.1215858861      -33.8865508425        3.1577905120  MEOH      878             0.0000000000
     23424      1570  MEOH      H1A            22.1584099911      -32.5751667091        1.5602493566  MEOH      878             0.0000000000
     23425      1570  MEOH      H1B            21.0959016101      -31.8766231755        2.8433544342  MEOH      878             0.0000000000
     23426      1570  MEOH      H1C            20.9449883998      -33.6332482261        2.3932360301  MEOH      878             0.0000000000
     23427      1570  MEOH      LP1A           22.6587829644      -33.4572911340        3.5404133013  MEOH      878             0.0000000000
     23428      1570  MEOH      LP1B           22.8082736006      -32.8196892824        3.6009569079  MEOH      878             0.0000000000
     23429      1571  MEOH      C1             28.4287517409       16.3268573262       -5.6216307645  MEOH      879             0.0000000000
     23430      1571  MEOH      DC1            28.4239615749       16.3392095554       -5.6283658104  MEOH      879             0.0000000000
     23431      1571  MEOH      O1             29.4311644840       17.0637501780       -4.9217525717  MEOH      879             0.0000000000
     23432      1571  MEOH      DO1            29.4328416202       17.0783922369       -4.9281551959  MEOH      879             0.0000000000
     23433      1571  MEOH      HO1            30.2891222406       16.7078060122       -5.2012382398  MEOH      879             0.0000000000
     23434      1571  MEOH      HO2            29.1961849544       18.0003502579       -5.0137575313  MEOH      879             0.0000000000
     23435      1571  MEOH      H1A            27.4396412904       16.4922959181       -5.1434973200  MEOH      879             0.0000000000
     23436      1571  MEOH      H1B            28.6621920987       15.2411732890       -5.5882126320  MEOH      879             0.0000000000
     23437      1571  MEOH      H1C            28.3861806448       16.6604166016       -6.6805202353  MEOH      879             0.0000000000
     23438      1571  MEOH      LP1A           29.5218575639       17.3472078874       -5.1059440270  MEOH      879             0.0000000000
     23439      1571  MEOH      LP1B           29.5004306234       16.9100844410       -4.6150131983  MEOH      879             0.0000000000
     23440      1572  MEOH      C1              2.4100967046        9.6928519340       -0.8505295569  MEOH      880             0.0000000000
     23441      1572  MEOH      DC1             2.4172182440        9.6854787919       -0.8251102179  MEOH      880             0.0000000000
     23442      1572  MEOH      O1              1.6348457656       10.8403610399       -0.5008719932  MEOH      880             0.0000000000
     23443      1572  MEOH      DO1             1.6537480031       10.8381761422       -0.4796222593  MEOH      880             0.0000000000
     23444      1572  MEOH      HO1             1.8213829974       11.5058463930       -1.1814842954  MEOH      880             0.0000000000
     23445      1572  MEOH      HO2             0.7242999756       10.5144765722       -0.4260009120  MEOH      880             0.0000000000
     23446      1572  MEOH      H1A             2.1497019477        8.8408676487       -0.1867235984  MEOH      880             0.0000000000
     23447      1572  MEOH      H1B             3.4920984266        9.9344514672       -0.7782596481  MEOH      880             0.0000000000
     23448      1572  MEOH      H1C             2.1786670857        9.3818213816       -1.8916930057  MEOH      880             0.0000000000
     23449      1572  MEOH      LP1A            1.3175750549       10.8195976996       -0.6471873370  MEOH      880             0.0000000000
     23450      1572  MEOH      LP1B            1.8180891616       11.0479178505       -0.2867644776  MEOH      880             0.0000000000
     23451      1573  MEOH      C1             -8.2693054374       11.0079444502        2.4978579710  MEOH      881             0.0000000000
     23452      1573  MEOH      DC1            -8.2651067689       11.0250105142        2.5043963989  MEOH      881             0.0000000000
     23453      1573  MEOH      O1             -9.0375749943       11.9089437687        1.6901150895  MEOH      881             0.0000000000
     23454      1573  MEOH      DO1            -9.0430086460       11.9299467909        1.7033316351  MEOH      881             0.0000000000
     23455      1573  MEOH      HO1            -9.8779619479       11.4709695658        1.4831649321  MEOH      881             0.0000000000
     23456      1573  MEOH      HO2            -8.9594491266       12.7941547620        2.0789567618  MEOH      881             0.0000000000
     23457      1573  MEOH      H1A            -7.1884046374       11.2423880362        2.3929262526  MEOH      881             0.0000000000
     23458      1573  MEOH      H1B            -8.4223278622        9.9634413469        2.1515656004  MEOH      881             0.0000000000
     23459      1573  MEOH      H1C            -8.5838619112       11.0619279373        3.5620294836  MEOH      881             0.0000000000
     23460      1573  MEOH      LP1A           -9.2314723622       12.1169642026        1.8941526102  MEOH      881             0.0000000000
     23461      1573  MEOH      LP1B           -8.9635145012       11.8591295109        1.3516869833  MEOH      881             0.0000000000
     23462      1574  MEOH      C1            -33.9390000371      -28.7712696612        0.0548560555  MEOH      882             0.0000000000
     23463      1574  MEOH      DC1           -33.9286971983      -28.7681744192        0.0498066476  MEOH      882             0.0000000000
     23464      1574  MEOH      O1            -34.4691701864      -29.9803918643       -0.4916954821  MEOH      882             0.0000000000
     23465      1574  MEOH      DO1           -34.4557301136      -29.9792028049       -0.4977361162  MEOH      882             0.0000000000
     23466      1574  MEOH      HO1           -35.0974829804      -29.7465508693       -1.1927243132  MEOH      882             0.0000000000
     23467      1574  MEOH      HO2           -33.7128802796      -30.5643559238       -0.6587629981  MEOH      882             0.0000000000
     23468      1574  MEOH      H1A           -33.3689060140      -29.0054382935        0.9792363116  MEOH      882             0.0000000000
     23469      1574  MEOH      H1B           -34.7618157098      -28.0719127077        0.3159982021  MEOH      882             0.0000000000
     23470      1574  MEOH      H1C           -33.2598707801      -28.2920815477       -0.6823570779  MEOH      882             0.0000000000
     23471      1574  MEOH      LP1A          -34.2667224257      -30.0918013972       -0.7545696349  MEOH      882             0.0000000000
     23472      1574  MEOH      LP1B          -34.7540219715      -30.0776838973       -0.3131073503  MEOH      882             0.0000000000
     23473      1575  MEOH      C1            -12.6115724971      -23.9312413885       36.1870342974  MEOH      883             0.0000000000
     23474      1575  MEOH      DC1           -12.5917757454      -23.9362340114       36.2005603488  MEOH      883             0.0000000000
     23475      1575  MEOH      O1            -11.6832694080      -23.2463068901       37.0323817322  MEOH      883             0.0000000000
     23476      1575  MEOH      DO1           -11.6722212250      -23.2724728911       37.0524752865  MEOH      883             0.0000000000
     23477      1575  MEOH      HO1           -10.9156651424      -23.0158202811       36.4859756423  MEOH      883             0.0000000000
     23478      1575  MEOH      HO2           -12.1940828980      -22.5402657830       37.4583811849  MEOH      883             0.0000000000
     23479      1575  MEOH      H1A           -13.5839045217      -24.0221602170       36.7167749892  MEOH      883             0.0000000000
     23480      1575  MEOH      H1B           -12.2253016675      -24.9481416133       35.9611365756  MEOH      883             0.0000000000
     23481      1575  MEOH      H1C           -12.8113363256      -23.3755474614       35.2459606167  MEOH      883             0.0000000000
     23482      1575  MEOH      LP1A          -11.7503320386      -22.9027985688       37.0302284128  MEOH      883             0.0000000000
     23483      1575  MEOH      LP1B          -11.4680206103      -23.4763187091       37.1849022823  MEOH      883             0.0000000000
     23484      1576  MEOH      C1             25.6781806674      -21.5173459605      -14.1083718100  MEOH      884             0.0000000000
     23485      1576  MEOH      DC1            25.6674583661      -21.5127450897      -14.0905679825  MEOH      884             0.0000000000
     23486      1576  MEOH      O1             24.4705891611      -21.6900450978      -13.3600179326  MEOH      884             0.0000000000
     23487      1576  MEOH      DO1            24.4531907794      -21.7003727189      -13.3523751082  MEOH      884             0.0000000000
     23488      1576  MEOH      HO1            23.7566595682      -21.4490823329      -13.9708710101  MEOH      884             0.0000000000
     23489      1576  MEOH      HO2            24.5183480407      -22.5776567688      -12.9717337435  MEOH      884             0.0000000000
     23490      1576  MEOH      H1A            26.5562587338      -21.6910209423      -13.4502404324  MEOH      884             0.0000000000
     23491      1576  MEOH      H1B            25.7266608382      -20.4830943148      -14.5112293631  MEOH      884             0.0000000000
     23492      1576  MEOH      H1C            25.7193108486      -22.2307411846      -14.9590753794  MEOH      884             0.0000000000
     23493      1576  MEOH      LP1A           24.3542768375      -22.0183427744      -13.3945444278  MEOH      884             0.0000000000
     23494      1576  MEOH      LP1B           24.3910106230      -21.3939688420      -13.1911804159  MEOH      884             0.0000000000
     23495      1577  MEOH      C1            -25.2054135810       13.3321614555        8.1358324625  MEOH      885             0.0000000000
     23496      1577  MEOH      DC1           -25.2093151368       13.3570863781        8.1188131235  MEOH      885             0.0000000000
     23497      1577  MEOH      O1            -23.8365656321       13.0293018025        7.8661344828  MEOH      885             0.0000000000
     23498      1577  MEOH      DO1           -23.8348590348       13.0593914318        7.8564573558  MEOH      885             0.0000000000
     23499      1577  MEOH      HO1           -23.6658814977       13.0097637165        6.9114695204  MEOH      885             0.0000000000
     23500      1577  MEOH      HO2           -23.2936431612       13.4929117469        8.5227934582  MEOH      885             0.0000000000
     23501      1577  MEOH      H1A           -25.4676939614       12.9759686478        9.1549775388  MEOH      885             0.0000000000
     23502      1577  MEOH      H1B           -25.8510292317       12.7943578550        7.4090114949  MEOH      885             0.0000000000
     23503      1577  MEOH      H1C           -25.3959923319       14.4241648340        8.0614727802  MEOH      885             0.0000000000
     23504      1577  MEOH      LP1A          -23.6485381638       13.3243147722        7.8555034489  MEOH      885             0.0000000000
     23505      1577  MEOH      LP1B          -23.7929728754       12.6828114096        7.8428089788  MEOH      885             0.0000000000
     23506      1578  MEOH      C1             30.5564694290       12.0747930444       16.7749635550  MEOH      886             0.0000000000
     23507      1578  MEOH      DC1            30.5698072363       12.0796542516       16.7731233132  MEOH      886             0.0000000000
     23508      1578  MEOH      O1             31.7304676899       11.9719993015       15.9647799185  MEOH      886             0.0000000000
     23509      1578  MEOH      DO1            31.7463398957       11.9660198890       15.9902729324  MEOH      886             0.0000000000
     23510      1578  MEOH      HO1            31.4687773958       11.6228612442       15.0984538788  MEOH      886             0.0000000000
     23511      1578  MEOH      HO2            32.1678166463       12.8361829517       16.0178130186  MEOH      886             0.0000000000
     23512      1578  MEOH      H1A            30.8399135810       12.3534783737       17.8124195302  MEOH      886             0.0000000000
     23513      1578  MEOH      H1B            30.0138813888       11.1055221432       16.7957755443  MEOH      886             0.0000000000
     23514      1578  MEOH      H1C            29.8841210411       12.8654368966       16.3785408687  MEOH      886             0.0000000000
     23515      1578  MEOH      LP1A           31.7835732857       12.2719263500       15.7923746945  MEOH      886             0.0000000000
     23516      1578  MEOH      LP1B           31.8802344661       11.6589409784       16.0102155771  MEOH      886             0.0000000000
     23517      1579  MEOH      C1              6.3145217699        7.2326590930        6.4297251151  MEOH      887             0.0000000000
     23518      1579  MEOH      DC1             6.3254373271        7.2215001307        6.4318490672  MEOH      887             0.0000000000
     23519      1579  MEOH      O1              6.0468515420        7.5218339026        7.8060559693  MEOH      887             0.0000000000
     23520      1579  MEOH      DO1             6.0638804450        7.5175769541        7.8050434168  MEOH      887             0.0000000000
     23521      1579  MEOH      HO1             5.3268833019        8.1715086536        7.8276997025  MEOH      887             0.0000000000
     23522      1579  MEOH      HO2             5.9230250366        6.6627118277        8.2390412560  MEOH      887             0.0000000000
     23523      1579  MEOH      H1A             7.1590344868        6.5144220650        6.3572348145  MEOH      887             0.0000000000
     23524      1579  MEOH      H1B             6.5762292772        8.1615775667        5.8793246701  MEOH      887             0.0000000000
     23525      1579  MEOH      H1C             5.4173884387        6.7878774497        5.9484330238  MEOH      887             0.0000000000
     23526      1579  MEOH      LP1A            5.8085093070        7.2981634030        7.9312138161  MEOH      887             0.0000000000
     23527      1579  MEOH      LP1B            6.2486859130        7.7865326785        7.9142106953  MEOH      887             0.0000000000
     23528      1580  MEOH      C1             13.1455976439      -12.8427053735      -16.3098853691  MEOH      888             0.0000000000
     23529      1580  MEOH      DC1            13.1757116925      -12.8465384763      -16.3099738729  MEOH      888             0.0000000000
     23530      1580  MEOH      O1             13.4565379738      -13.0572520103      -17.6913541184  MEOH      888             0.0000000000
     23531      1580  MEOH      DO1            13.4998244628      -13.0596342192      -17.6840086098  MEOH      888             0.0000000000
     23532      1580  MEOH      HO1            13.6657303852      -12.2251857981      -18.1439072684  MEOH      888             0.0000000000
     23533      1580  MEOH      HO2            13.8501874456      -13.9340324267      -17.8224883854  MEOH      888             0.0000000000
     23534      1580  MEOH      H1A            12.4222877407      -13.6158372390      -15.9731200157  MEOH      888             0.0000000000
     23535      1580  MEOH      H1B            12.6709115955      -11.8492995771      -16.1610933020  MEOH      888             0.0000000000
     23536      1580  MEOH      H1C            14.0667900641      -12.9271437158      -15.6945840659  MEOH      888             0.0000000000
     23537      1580  MEOH      LP1A           13.7990797917      -13.1185740001      -17.7288336671  MEOH      888             0.0000000000
     23538      1580  MEOH      LP1B           13.1642993865      -13.0430686116      -17.8834359741  MEOH      888             0.0000000000
     23539      1581  MEOH      C1             23.0910504836      -16.4869326035      -26.7888966570  MEOH      889             0.0000000000
     23540      1581  MEOH      DC1            23.0793011886      -16.4801654732      -26.7873117260  MEOH      889             0.0000000000
     23541      1581  MEOH      O1             21.7361586391      -16.4898241647      -26.3333680250  MEOH      889             0.0000000000
     23542      1581  MEOH      DO1            21.7217079329      -16.4826031795      -26.3281421261  MEOH      889             0.0000000000
     23543      1581  MEOH      HO1            21.2070005580      -16.1277947243      -27.0612597820  MEOH      889             0.0000000000
     23544      1581  MEOH      HO2            21.5709753379      -17.3953059009      -26.0272352070  MEOH      889             0.0000000000
     23545      1581  MEOH      H1A            23.7632958641      -16.8535777285      -25.9839255386  MEOH      889             0.0000000000
     23546      1581  MEOH      H1B            23.3926215334      -15.4576736423      -27.0787274574  MEOH      889             0.0000000000
     23547      1581  MEOH      H1C            23.1965317646      -17.1611955538      -27.6655745770  MEOH      889             0.0000000000
     23548      1581  MEOH      LP1A           21.5841945028      -16.7952363206      -26.4116643614  MEOH      889             0.0000000000
     23549      1581  MEOH      LP1B           21.6645705090      -16.1893623607      -26.1687537972  MEOH      889             0.0000000000
     23550      1582  MEOH      C1             23.9018839500      -17.3014969014        1.7984580374  MEOH      890             0.0000000000
     23551      1582  MEOH      DC1            23.8902807462      -17.2882054129        1.8123511615  MEOH      890             0.0000000000
     23552      1582  MEOH      O1             23.5017449032      -17.0964825732        0.4480494641  MEOH      890             0.0000000000
     23553      1582  MEOH      DO1            23.4902341754      -17.0782072586        0.4508536603  MEOH      890             0.0000000000
     23554      1582  MEOH      HO1            23.4110413090      -17.9819699735        0.0625823155  MEOH      890             0.0000000000
     23555      1582  MEOH      HO2            22.7745778655      -16.4550426487        0.4741822508  MEOH      890             0.0000000000
     23556      1582  MEOH      H1A            24.3424192833      -16.3556931530        2.1801711368  MEOH      890             0.0000000000
     23557      1582  MEOH      H1B            24.6768976692      -18.0954691549        1.8557537241  MEOH      890             0.0000000000
     23558      1582  MEOH      H1C            23.0292484265      -17.6043887732        2.4157786663  MEOH      890             0.0000000000
     23559      1582  MEOH      LP1A           23.1526673911      -17.0814205112        0.4276038086  MEOH      890             0.0000000000
     23560      1582  MEOH      LP1B           23.7837179915      -17.0657018446        0.2430038003  MEOH      890             0.0000000000
     23561      1583  MEOH      C1             16.9152265744      -27.5079084957      -11.7755844300  MEOH      891             0.0000000000
     23562      1583  MEOH      DC1            16.9117673122      -27.4994070559      -11.7872456591  MEOH      891             0.0000000000
     23563      1583  MEOH      O1             17.9152752338      -27.0116808226      -10.8903287574  MEOH      891             0.0000000000
     23564      1583  MEOH      DO1            17.9062084603      -26.9954863589      -10.8932356054  MEOH      891             0.0000000000
     23565      1583  MEOH      HO1            17.5909714216      -27.1900450370       -9.9937166650  MEOH      891             0.0000000000
     23566      1583  MEOH      HO2            18.7387920637      -27.4388204939      -11.1736514241  MEOH      891             0.0000000000
     23567      1583  MEOH      H1A            17.2324486652      -27.3913401672      -12.8339336021  MEOH      891             0.0000000000
     23568      1583  MEOH      H1B            15.9603197564      -26.9603993745      -11.6248935778  MEOH      891             0.0000000000
     23569      1583  MEOH      H1C            16.7587717648      -28.5881116211      -11.5682101278  MEOH      891             0.0000000000
     23570      1583  MEOH      LP1A           18.1516623536      -27.2613260449      -10.8247666297  MEOH      891             0.0000000000
     23571      1583  MEOH      LP1B           17.8532343570      -26.6753096181      -10.8161307629  MEOH      891             0.0000000000
     23572      1584  MEOH      C1            -10.2010974755      -25.4458120450      -13.1027844733  MEOH      892             0.0000000000
     23573      1584  MEOH      DC1           -10.2006489820      -25.4447127542      -13.0966496387  MEOH      892             0.0000000000
     23574      1584  MEOH      O1             -9.9806576440      -24.5704356774      -11.9974360871  MEOH      892             0.0000000000
     23575      1584  MEOH      DO1            -9.9767352949      -24.5732758768      -11.9907911482  MEOH      892             0.0000000000
     23576      1584  MEOH      HO1           -10.8495479523      -24.3127781810      -11.6516872650  MEOH      892             0.0000000000
     23577      1584  MEOH      HO2            -9.3214443361      -25.0065845508      -11.4351977259  MEOH      892             0.0000000000
     23578      1584  MEOH      H1A            -9.2331549384      -25.6480880213      -13.6092355317  MEOH      892             0.0000000000
     23579      1584  MEOH      H1B           -10.8952090865      -24.9818370076      -13.8357628060  MEOH      892             0.0000000000
     23580      1584  MEOH      H1C           -10.6299362979      -26.4060429223      -12.7444900028  MEOH      892             0.0000000000
     23581      1584  MEOH      LP1A           -9.9520483686      -24.7556977588      -11.7018697316  MEOH      892             0.0000000000
     23582      1584  MEOH      LP1B           -9.9609447872      -24.2392977984      -12.1090564632  MEOH      892             0.0000000000
     23583      1585  MEOH      C1             -5.4960774826      -17.7609026230      -20.2015031297  MEOH      893             0.0000000000
     23584      1585  MEOH      DC1            -5.4768667964      -17.7672465690      -20.1981086862  MEOH      893             0.0000000000
     23585      1585  MEOH      O1             -6.5734615916      -16.9924482350      -20.7353231340  MEOH      893             0.0000000000
     23586      1585  MEOH      DO1            -6.5566719966      -16.9894882133      -20.7275029065  MEOH      893             0.0000000000
     23587      1585  MEOH      HO1            -7.3362522760      -17.0612912506      -20.1400828372  MEOH      893             0.0000000000
     23588      1585  MEOH      HO2            -6.1953307368      -16.1342904289      -20.9832792536  MEOH      893             0.0000000000
     23589      1585  MEOH      H1A            -4.7317117222      -17.9195661266      -20.9920041588  MEOH      893             0.0000000000
     23590      1585  MEOH      H1B            -5.8722263470      -18.7436912491      -19.8451892932  MEOH      893             0.0000000000
     23591      1585  MEOH      H1C            -5.0260401202      -17.2032514691      -19.3634034524  MEOH      893             0.0000000000
     23592      1585  MEOH      LP1A           -6.5548489982      -16.6630005445      -20.6186278443  MEOH      893             0.0000000000
     23593      1585  MEOH      LP1B           -6.7662747774      -17.1899728935      -20.9505139440  MEOH      893             0.0000000000
     23594      1586  MEOH      C1             -4.1943760475       27.8394034665      -15.8540621009  MEOH      894             0.0000000000
     23595      1586  MEOH      DC1            -4.1931559451       27.8355748071      -15.8690594999  MEOH      894             0.0000000000
     23596      1586  MEOH      O1             -3.0673863403       27.7302742324      -15.0031715738  MEOH      894             0.0000000000
     23597      1586  MEOH      DO1            -3.0684233980       27.7205111834      -15.0181806457  MEOH      894             0.0000000000
     23598      1586  MEOH      HO1            -2.3857110502       28.3447586479      -15.3172220536  MEOH      894             0.0000000000
     23599      1586  MEOH      HO2            -3.4162024622       27.8579848137      -14.1071150351  MEOH      894             0.0000000000
     23600      1586  MEOH      H1A            -5.0238180697       27.2268389033      -15.4404057366  MEOH      894             0.0000000000
     23601      1586  MEOH      H1B            -3.9476494153       27.4622463989      -16.8695420453  MEOH      894             0.0000000000
     23602      1586  MEOH      H1C            -4.5321762263       28.8966680681      -15.9030886451  MEOH      894             0.0000000000
     23603      1586  MEOH      LP1A           -3.0981234825       27.9526851879      -14.7346783803  MEOH      894             0.0000000000
     23604      1586  MEOH      LP1B           -2.8516084473       27.4814571248      -15.1216196546  MEOH      894             0.0000000000
     23605      1587  MEOH      C1             16.8716027502        9.8541313904       20.6303948311  MEOH      895             0.0000000000
     23606      1587  MEOH      DC1            16.8694578250        9.8555468886       20.6040396270  MEOH      895             0.0000000000
     23607      1587  MEOH      O1             15.4644571170        9.6431060581       20.5742233500  MEOH      895             0.0000000000
     23608      1587  MEOH      DO1            15.4612744220        9.6452170326       20.5618341390  MEOH      895             0.0000000000
     23609      1587  MEOH      HO1            15.0826324127       10.3052846729       19.9770388079  MEOH      895             0.0000000000
     23610      1587  MEOH      HO2            15.3404435238        8.6905239387       20.4396576221  MEOH      895             0.0000000000
     23611      1587  MEOH      H1A            17.3011415762        9.2012401046       21.4200468858  MEOH      895             0.0000000000
     23612      1587  MEOH      H1B            17.0894465277       10.9188923342       20.8609359809  MEOH      895             0.0000000000
     23613      1587  MEOH      H1C            17.3600358215        9.5950314928       19.6667448024  MEOH      895             0.0000000000
     23614      1587  MEOH      LP1A           15.3875813151        9.4157602452       20.3194607302  MEOH      895             0.0000000000
     23615      1587  MEOH      LP1B           15.3057805908        9.8261645923       20.8268324019  MEOH      895             0.0000000000
     23616      1588  MEOH      C1              1.5885253413       16.5749035371       -8.8279797761  MEOH      896             0.0000000000
     23617      1588  MEOH      DC1             1.5987318659       16.5836376188       -8.8328456201  MEOH      896             0.0000000000
     23618      1588  MEOH      O1              0.6547749980       15.6822957835       -9.4385773643  MEOH      896             0.0000000000
     23619      1588  MEOH      DO1             0.6545313115       15.6957028835       -9.4355595960  MEOH      896             0.0000000000
     23620      1588  MEOH      HO1             0.2398638162       15.1461528684       -8.7448198520  MEOH      896             0.0000000000
     23621      1588  MEOH      HO2             0.1230521667       16.2109326563      -10.0539747059  MEOH      896             0.0000000000
     23622      1588  MEOH      H1A             2.2597215234       17.0060454751       -9.6012412551  MEOH      896             0.0000000000
     23623      1588  MEOH      H1B             2.2041331053       16.0319937833       -8.0792494642  MEOH      896             0.0000000000
     23624      1588  MEOH      H1C             1.0427849959       17.4011036217       -8.3241128323  MEOH      896             0.0000000000
     23625      1588  MEOH      LP1A            0.3408677348       15.8352682398       -9.4622766835  MEOH      896             0.0000000000
     23626      1588  MEOH      LP1B            0.8148747475       15.3840351054       -9.5275078883  MEOH      896             0.0000000000
     23627      1589  MEOH      C1              8.6686680955      -19.8842778260       23.9411566952  MEOH      897             0.0000000000
     23628      1589  MEOH      DC1             8.6572641622      -19.8846374736       23.9261045476  MEOH      897             0.0000000000
     23629      1589  MEOH      O1             10.0251762521      -20.0165600220       24.3409666373  MEOH      897             0.0000000000
     23630      1589  MEOH      DO1            10.0257597355      -20.0101079062       24.3350734046  MEOH      897             0.0000000000
     23631      1589  MEOH      HO1            10.5501572495      -20.3511902944       23.5971134709  MEOH      897             0.0000000000
     23632      1589  MEOH      HO2            10.2650346756      -19.2346378681       24.8624699293  MEOH      897             0.0000000000
     23633      1589  MEOH      H1A             8.0326562957      -19.7722430488       24.8451800352  MEOH      897             0.0000000000
     23634      1589  MEOH      H1B             8.3732037623      -20.7995703525       23.3850439187  MEOH      897             0.0000000000
     23635      1589  MEOH      H1C             8.5581631418      -18.9858817940       23.2969562407  MEOH      897             0.0000000000
     23636      1589  MEOH      LP1A           10.1969187704      -19.7172362198       24.2825734111  MEOH      897             0.0000000000
     23637      1589  MEOH      LP1B           10.0793672069      -20.3343584109       24.4772293411  MEOH      897             0.0000000000
     23638      1590  MEOH      C1             -2.3774060227      -26.9330626385      -35.3615121048  MEOH      898             0.0000000000
     23639      1590  MEOH      DC1            -2.3797527934      -26.9293965991      -35.3599494700  MEOH      898             0.0000000000
     23640      1590  MEOH      O1             -3.4039134310      -27.6387972775      -36.0646215355  MEOH      898             0.0000000000
     23641      1590  MEOH      DO1            -3.4051940216      -27.6389119730      -36.0635109853  MEOH      898             0.0000000000
     23642      1590  MEOH      HO1            -2.9740941431      -28.1315731070      -36.7810902100  MEOH      898             0.0000000000
     23643      1590  MEOH      HO2            -3.9168996566      -28.1079189350      -35.3881084140  MEOH      898             0.0000000000
     23644      1590  MEOH      H1A            -2.8441065489      -26.3074398830      -34.5708745221  MEOH      898             0.0000000000
     23645      1590  MEOH      H1B            -1.8064604507      -26.2862327573      -36.0614787174  MEOH      898             0.0000000000
     23646      1590  MEOH      H1C            -1.6738202913      -27.6392852716      -34.8710656626  MEOH      898             0.0000000000
     23647      1590  MEOH      LP1A           -3.4542679185      -27.9531229979      -35.9191438154  MEOH      898             0.0000000000
     23648      1590  MEOH      LP1B           -3.5332424617      -27.4382397977      -36.3206502431  MEOH      898             0.0000000000
     23649      1591  MEOH      C1            -11.9202236738      -19.1886660159       -0.5975852130  MEOH      899             0.0000000000
     23650      1591  MEOH      DC1           -11.9256957821      -19.1842552560       -0.5957240740  MEOH      899             0.0000000000
     23651      1591  MEOH      O1            -13.0158119866      -18.7695034493       -1.4081185697  MEOH      899             0.0000000000
     23652      1591  MEOH      DO1           -13.0212288108      -18.7793657860       -1.4186477486  MEOH      899             0.0000000000
     23653      1591  MEOH      HO1           -13.8079436280      -18.8775673907       -0.8588011320  MEOH      899             0.0000000000
     23654      1591  MEOH      HO2           -12.7737950122      -17.8848950337       -1.7240232019  MEOH      899             0.0000000000
     23655      1591  MEOH      H1A           -10.9809384976      -19.1271484650       -1.1877376923  MEOH      899             0.0000000000
     23656      1591  MEOH      H1B           -12.0714436516      -20.2369316296       -0.2620368209  MEOH      899             0.0000000000
     23657      1591  MEOH      H1C           -11.8298174037      -18.5310362302        0.2932968059  MEOH      899             0.0000000000
     23658      1591  MEOH      LP1A          -13.0689139784      -18.4257565935       -1.3691534882  MEOH      899             0.0000000000
     23659      1591  MEOH      LP1B          -13.1394301241      -19.0405811989       -1.5917905865  MEOH      899             0.0000000000
     23660      1592  MEOH      C1              7.5345296841      -10.9186653285       -6.2996540662  MEOH      900             0.0000000000
     23661      1592  MEOH      DC1             7.5395265854      -10.9115286003       -6.2986615304  MEOH      900             0.0000000000
     23662      1592  MEOH      O1              7.2019568339      -11.2920671756       -4.9663725150  MEOH      900             0.0000000000
     23663      1592  MEOH      DO1             7.2074150891      -11.2911928431       -4.9682475407  MEOH      900             0.0000000000
     23664      1592  MEOH      HO1             6.9246454793      -10.4890500226       -4.4982252468  MEOH      900             0.0000000000
     23665      1592  MEOH      HO2             6.5959290120      -12.0449050746       -5.0492300883  MEOH      900             0.0000000000
     23666      1592  MEOH      H1A             7.9586898284      -11.7982624939       -6.8294823399  MEOH      900             0.0000000000
     23667      1592  MEOH      H1B             8.2801570254      -10.0950992233       -6.2896671569  MEOH      900             0.0000000000
     23668      1592  MEOH      H1C             6.6251205195      -10.5849609204       -6.8436552990  MEOH      900             0.0000000000
     23669      1592  MEOH      LP1A            6.8643027862      -11.3823641253       -4.9480366224  MEOH      900             0.0000000000
     23670      1592  MEOH      LP1B            7.4862888695      -11.2754710234       -4.7629521097  MEOH      900             0.0000000000
     23671      1593  MEOH      C1            -22.6607880205      -12.9725294918      -23.5693470289  MEOH      901             0.0000000000
     23672      1593  MEOH      DC1           -22.6374542101      -12.9747887303      -23.5910237109  MEOH      901             0.0000000000
     23673      1593  MEOH      O1            -21.3834803978      -13.5968079822      -23.7177241153  MEOH      901             0.0000000000
     23674      1593  MEOH      DO1           -21.3738991432      -13.6069471876      -23.7414596437  MEOH      901             0.0000000000
     23675      1593  MEOH      HO1           -20.8588224209      -13.3036939375      -22.9563318616  MEOH      901             0.0000000000
     23676      1593  MEOH      HO2           -21.5556925461      -14.5404297633      -23.8620186433  MEOH      901             0.0000000000
     23677      1593  MEOH      H1A           -23.2715682321      -13.1221283166      -24.4852557174  MEOH      901             0.0000000000
     23678      1593  MEOH      H1B           -22.5370244899      -11.8841587144      -23.3837328072  MEOH      901             0.0000000000
     23679      1593  MEOH      H1C           -23.2069393470      -13.4122755615      -22.7075679826  MEOH      901             0.0000000000
     23680      1593  MEOH      LP1A          -21.3846614063      -13.9103071597      -23.5621064077  MEOH      901             0.0000000000
     23681      1593  MEOH      LP1B          -21.1719367792      -13.3928769976      -23.9078857597  MEOH      901             0.0000000000
     23682      1594  MEOH      C1              2.5046049839      -30.9348038224       25.3249389179  MEOH      902             0.0000000000
     23683      1594  MEOH      DC1             2.4952186757      -30.9344615016       25.3267496341  MEOH      902             0.0000000000
     23684      1594  MEOH      O1              2.6544947849      -29.5287909371       25.1425310945  MEOH      902             0.0000000000
     23685      1594  MEOH      DO1             2.6443589067      -29.5252642968       25.1332702981  MEOH      902             0.0000000000
     23686      1594  MEOH      HO1             2.6770751808      -29.1394182169       26.0306634103  MEOH      902             0.0000000000
     23687      1594  MEOH      HO2             3.4313862210      -29.4260974739       24.5708723240  MEOH      902             0.0000000000
     23688      1594  MEOH      H1A             2.5082228946      -31.4380816254       24.3344747006  MEOH      902             0.0000000000
     23689      1594  MEOH      H1B             1.5434473023      -31.1482631590       25.8396543959  MEOH      902             0.0000000000
     23690      1594  MEOH      H1C             3.3490246092      -31.3263425412       25.9315474639  MEOH      902             0.0000000000
     23691      1594  MEOH      LP1A            2.9941304939      -29.4454851038       25.1281184857  MEOH      902             0.0000000000
     23692      1594  MEOH      LP1B            2.3401048895      -29.3774729797       25.1149291123  MEOH      902             0.0000000000
     23693      1595  MEOH      C1             15.4771456633       18.7033170023      -16.8072832747  MEOH      903             0.0000000000
     23694      1595  MEOH      DC1            15.4724529782       18.7091507177      -16.8070086274  MEOH      903             0.0000000000
     23695      1595  MEOH      O1             16.1053806277       19.9089515281      -16.3682612155  MEOH      903             0.0000000000
     23696      1595  MEOH      DO1            16.1080726006       19.9086482882      -16.3726651133  MEOH      903             0.0000000000
     23697      1595  MEOH      HO1            16.9615962477       19.6644208548      -15.9835541037  MEOH      903             0.0000000000
     23698      1595  MEOH      HO2            16.0587125021       20.5240309416      -17.1168595070  MEOH      903             0.0000000000
     23699      1595  MEOH      H1A            14.4499315639       18.9287310108      -17.1655300058  MEOH      903             0.0000000000
     23700      1595  MEOH      H1B            15.4163929242       17.9737897759      -15.9715679338  MEOH      903             0.0000000000
     23701      1595  MEOH      H1C            16.0728869934       18.2418721877      -17.6236667329  MEOH      903             0.0000000000
     23702      1595  MEOH      LP1A           16.2954580753       20.0463539993      -16.6280517558  MEOH      903             0.0000000000
     23703      1595  MEOH      LP1B           16.0115436685       19.9796410678      -16.0385680035  MEOH      903             0.0000000000
     23704      1596  MEOH      C1             -4.3988856479       -0.9331120812      -15.8455601659  MEOH      904             0.0000000000
     23705      1596  MEOH      DC1            -4.3879553558       -0.9481172833      -15.8535508482  MEOH      904             0.0000000000
     23706      1596  MEOH      O1             -5.0708104436        0.0653951958      -15.0819290690  MEOH      904             0.0000000000
     23707      1596  MEOH      DO1            -5.0619697773        0.0519159889      -15.0972492403  MEOH      904             0.0000000000
     23708      1596  MEOH      HO1            -5.2017021255        0.8695226447      -15.6083760412  MEOH      904             0.0000000000
     23709      1596  MEOH      HO2            -5.8265452378       -0.3722418251      -14.6597457453  MEOH      904             0.0000000000
     23710      1596  MEOH      H1A            -4.1413953630       -1.7882405799      -15.1846706105  MEOH      904             0.0000000000
     23711      1596  MEOH      H1B            -3.4699512284       -0.5174729512      -16.2912573252  MEOH      904             0.0000000000
     23712      1596  MEOH      H1C            -5.0792599959       -1.3063334443      -16.6406183793  MEOH      904             0.0000000000
     23713      1596  MEOH      LP1A           -5.4172322947        0.0303282291      -15.1174566495  MEOH      904             0.0000000000
     23714      1596  MEOH      LP1B           -4.8376402036        0.2610455602      -14.9091500943  MEOH      904             0.0000000000
     23715      1597  MEOH      C1             15.4069884834       -3.7162679155       -0.7961384550  MEOH      905             0.0000000000
     23716      1597  MEOH      DC1            15.3990204465       -3.7265270129       -0.8030691862  MEOH      905             0.0000000000
     23717      1597  MEOH      O1             14.1052491835       -3.8097855018       -1.3729516674  MEOH      905             0.0000000000
     23718      1597  MEOH      DO1            14.0937011656       -3.8248883996       -1.3513923723  MEOH      905             0.0000000000
     23719      1597  MEOH      HO1            13.7278742135       -2.9162195516       -1.3676578416  MEOH      905             0.0000000000
     23720      1597  MEOH      HO2            14.2317945458       -4.2593893635       -2.2230943847  MEOH      905             0.0000000000
     23721      1597  MEOH      H1A            15.9213663304       -4.6979718042       -0.8735587718  MEOH      905             0.0000000000
     23722      1597  MEOH      H1B            15.3513050458       -3.4359644158        0.2774770739  MEOH      905             0.0000000000
     23723      1597  MEOH      H1C            15.9921170949       -2.9426452232       -1.3378518833  MEOH      905             0.0000000000
     23724      1597  MEOH      LP1A           14.1247051933       -3.7674832100       -1.7198406695  MEOH      905             0.0000000000
     23725      1597  MEOH      LP1B           13.8688447491       -3.8790674301       -1.1243295490  MEOH      905             0.0000000000
     23726      1598  MEOH      C1            -21.4910426609        3.6563485055       -3.9028891538  MEOH      906             0.0000000000
     23727      1598  MEOH      DC1           -21.5000083682        3.6424057150       -3.9061161045  MEOH      906             0.0000000000
     23728      1598  MEOH      O1            -20.8753963145        3.7678765863       -2.6158328048  MEOH      906             0.0000000000
     23729      1598  MEOH      DO1           -20.8831727036        3.7527664758       -2.6153254336  MEOH      906             0.0000000000
     23730      1598  MEOH      HO1           -21.3773386582        3.2481510213       -1.9686549152  MEOH      906             0.0000000000
     23731      1598  MEOH      HO2           -19.9217764738        3.6505136220       -2.7490061300  MEOH      906             0.0000000000
     23732      1598  MEOH      H1A           -21.1086920452        4.4655131026       -4.5612064495  MEOH      906             0.0000000000
     23733      1598  MEOH      H1B           -22.5922305325        3.7659554485       -3.8044382044  MEOH      906             0.0000000000
     23734      1598  MEOH      H1C           -21.2482302320        2.6835091831       -4.3813729868  MEOH      906             0.0000000000
     23735      1598  MEOH      LP1A          -20.6334903330        3.5179626844       -2.5767874754  MEOH      906             0.0000000000
     23736      1598  MEOH      LP1B          -21.0062403148        4.0432974258       -2.4440096144  MEOH      906             0.0000000000
     23737      1599  MEOH      C1             26.2138146656       21.8665587169       22.0133908058  MEOH      907             0.0000000000
     23738      1599  MEOH      DC1            26.2098762278       21.8631083601       22.0110673029  MEOH      907             0.0000000000
     23739      1599  MEOH      O1             25.6756805024       20.6020839495       22.4014441588  MEOH      907             0.0000000000
     23740      1599  MEOH      DO1            25.6762676995       20.5927462749       22.3932864831  MEOH      907             0.0000000000
     23741      1599  MEOH      HO1            25.0692518867       20.3209782273       21.6985046827  MEOH      907             0.0000000000
     23742      1599  MEOH      HO2            26.4338268450       20.0541618919       22.6581454305  MEOH      907             0.0000000000
     23743      1599  MEOH      H1A            26.8597805034       22.2622569916       22.8260850981  MEOH      907             0.0000000000
     23744      1599  MEOH      H1B            25.3972534031       22.5972850814       21.8301213735  MEOH      907             0.0000000000
     23745      1599  MEOH      H1C            26.8271020268       21.7526739477       21.0940269638  MEOH      907             0.0000000000
     23746      1599  MEOH      LP1A           25.8816334877       20.3437772656       22.2858542593  MEOH      907             0.0000000000
     23747      1599  MEOH      LP1B           25.3856779943       20.6487270041       22.5917674909  MEOH      907             0.0000000000
     23748      1600  MEOH      C1            -31.1827324002      -22.8410625612       31.5079765656  MEOH      908             0.0000000000
     23749      1600  MEOH      DC1           -31.1926461708      -22.8263194833       31.4925374224  MEOH      908             0.0000000000
     23750      1600  MEOH      O1            -32.5670263269      -23.0818669864       31.7734656114  MEOH      908             0.0000000000
     23751      1600  MEOH      DO1           -32.5827824216      -23.0720161319       31.7562958968  MEOH      908             0.0000000000
     23752      1600  MEOH      HO1           -32.9095212547      -22.3001081969       32.2343890535  MEOH      908             0.0000000000
     23753      1600  MEOH      HO2           -32.9562137568      -23.4214234408       30.9524086343  MEOH      908             0.0000000000
     23754      1600  MEOH      H1A           -30.6875056520      -23.7891711361       31.2077073566  MEOH      908             0.0000000000
     23755      1600  MEOH      H1B           -30.6804313107      -22.4782023783       32.4301192361  MEOH      908             0.0000000000
     23756      1600  MEOH      H1C           -31.0690023411      -22.0785941274       30.7079588397  MEOH      908             0.0000000000
     23757      1600  MEOH      LP1A          -32.7615223522      -22.9714394117       31.5042499973  MEOH      908             0.0000000000
     23758      1600  MEOH      LP1B          -32.6034823959      -23.2428884401       32.0820803331  MEOH      908             0.0000000000
     23759      1601  MEOH      C1             32.0256324331       10.1122293267       -4.0500492580  MEOH      909             0.0000000000
     23760      1601  MEOH      DC1            32.0272064158       10.1091462585       -4.0469778997  MEOH      909             0.0000000000
     23761      1601  MEOH      O1             31.4298256737       10.2806997416       -2.7612944611  MEOH      909             0.0000000000
     23762      1601  MEOH      DO1            31.4300072461       10.2716193474       -2.7566083148  MEOH      909             0.0000000000
     23763      1601  MEOH      HO1            30.4682770021       10.3106912851       -2.8854905163  MEOH      909             0.0000000000
     23764      1601  MEOH      HO2            31.8441505162        9.6283455340       -2.1750616467  MEOH      909             0.0000000000
     23765      1601  MEOH      H1A            33.1287485277       10.2228500734       -3.9778070755  MEOH      909             0.0000000000
     23766      1601  MEOH      H1B            31.6400641687       10.8867238114       -4.7470545712  MEOH      909             0.0000000000
     23767      1601  MEOH      H1C            31.7768016248        9.1065772485       -4.4513821979  MEOH      909             0.0000000000
     23768      1601  MEOH      LP1A           31.3703392374        9.9682847166       -2.6151499572  MEOH      909             0.0000000000
     23769      1601  MEOH      LP1B           31.3999678612       10.6213801345       -2.6868271467  MEOH      909             0.0000000000
     23770      1602  MEOH      C1            -13.8398745573       -0.0719631442       19.0799945305  MEOH      910             0.0000000000
     23771      1602  MEOH      DC1           -13.8362951146       -0.0484439440       19.0869354645  MEOH      910             0.0000000000
     23772      1602  MEOH      O1            -13.8837330930       -0.8346852696       17.8913258627  MEOH      910             0.0000000000
     23773      1602  MEOH      DO1           -13.8777616775       -0.8212374732       17.9032798484  MEOH      910             0.0000000000
     23774      1602  MEOH      HO1           -13.8940641207       -1.7674850430       18.1571789285  MEOH      910             0.0000000000
     23775      1602  MEOH      HO2           -14.6193845027       -0.4870811749       17.3632270108  MEOH      910             0.0000000000
     23776      1602  MEOH      H1A           -13.7778356677        0.9857083296       18.7456246300  MEOH      910             0.0000000000
     23777      1602  MEOH      H1B           -12.9438848793       -0.3331463410       19.6827439268  MEOH      910             0.0000000000
     23778      1602  MEOH      H1C           -14.7702852463       -0.2221780128       19.6682907526  MEOH      910             0.0000000000
     23779      1602  MEOH      LP1A          -14.2161219553       -0.8884710290       17.7958023772  MEOH      910             0.0000000000
     23780      1602  MEOH      LP1B          -13.5587552139       -0.9004700224       17.7792466746  MEOH      910             0.0000000000
     23781      1603  MEOH      C1             16.4614704070      -10.2340556899      -11.8283369405  MEOH      911             0.0000000000
     23782      1603  MEOH      DC1            16.4825746443      -10.2336074458      -11.8113811340  MEOH      911             0.0000000000
     23783      1603  MEOH      O1             15.8096122209      -11.4123947316      -12.2997777491  MEOH      911             0.0000000000
     23784      1603  MEOH      DO1            15.8413802818      -11.4159721651      -12.2947838336  MEOH      911             0.0000000000
     23785      1603  MEOH      HO1            15.3462390776      -11.8350380518      -11.5598061590  MEOH      911             0.0000000000
     23786      1603  MEOH      HO2            15.2585056181      -11.1021361138      -13.0352511369  MEOH      911             0.0000000000
     23787      1603  MEOH      H1A            16.9117135930       -9.6996983486      -12.6920870810  MEOH      911             0.0000000000
     23788      1603  MEOH      H1B            17.2615848606      -10.5040883379      -11.1063811022  MEOH      911             0.0000000000
     23789      1603  MEOH      H1C            15.7239161341       -9.5546250066      -11.3501020170  MEOH      911             0.0000000000
     23790      1603  MEOH      LP1A           15.4876807306      -11.3341042471      -12.4126082217  MEOH      911             0.0000000000
     23791      1603  MEOH      LP1B           16.0261526935      -11.6863916497      -12.2766279625  MEOH      911             0.0000000000
     23792      1604  MEOH      C1             -1.5311654350      -31.0674612325       -2.2138193698  MEOH      912             0.0000000000
     23793      1604  MEOH      DC1            -1.5442133330      -31.0616118915       -2.2220526995  MEOH      912             0.0000000000
     23794      1604  MEOH      O1             -1.2277020636      -30.4044415312       -0.9881664015  MEOH      912             0.0000000000
     23795      1604  MEOH      DO1            -1.2406230962      -30.3959288742       -0.9919168199  MEOH      912             0.0000000000
     23796      1604  MEOH      HO1            -0.2899641428      -30.1592301075       -1.0258353484  MEOH      912             0.0000000000
     23797      1604  MEOH      HO2            -1.9238687684      -29.7417636463       -0.8573614302  MEOH      912             0.0000000000
     23798      1604  MEOH      H1A            -2.5391558450      -31.5297249017       -2.1460799108  MEOH      912             0.0000000000
     23799      1604  MEOH      H1B            -0.7867950866      -31.8687333520       -2.4092593221  MEOH      912             0.0000000000
     23800      1604  MEOH      H1C            -1.5099639418      -30.3371717972       -3.0508073262  MEOH      912             0.0000000000
     23801      1604  MEOH      LP1A           -1.2885089090      -30.0611915968       -1.0195034410  MEOH      912             0.0000000000
     23802      1604  MEOH      LP1B           -1.1268076755      -30.6378034731       -0.7476200930  MEOH      912             0.0000000000
     23803      1605  MEOH      C1             21.7416716549       -4.3095791779       15.6612510448  MEOH      913             0.0000000000
     23804      1605  MEOH      DC1            21.7450581847       -4.3267788558       15.6563646970  MEOH      913             0.0000000000
     23805      1605  MEOH      O1             22.1573710294       -5.6005548756       15.2144292056  MEOH      913             0.0000000000
     23806      1605  MEOH      DO1            22.1658860933       -5.6120898677       15.2014106399  MEOH      913             0.0000000000
     23807      1605  MEOH      HO1            22.7218211797       -5.9448172153       15.9242034450  MEOH      913             0.0000000000
     23808      1605  MEOH      HO2            21.3362124942       -6.0648154760       14.9884629359  MEOH      913             0.0000000000
     23809      1605  MEOH      H1A            21.1147775104       -3.8185471118       14.8865173863  MEOH      913             0.0000000000
     23810      1605  MEOH      H1B            22.6266973715       -3.6681481665       15.8602905894  MEOH      913             0.0000000000
     23811      1605  MEOH      H1C            21.1520865846       -4.3973072945       16.5988086286  MEOH      913             0.0000000000
     23812      1605  MEOH      LP1A           21.9260083658       -5.8426744623       15.3161613228  MEOH      913             0.0000000000
     23813      1605  MEOH      LP1B           22.4524144467       -5.5734707264       15.0281073584  MEOH      913             0.0000000000
     23814      1606  MEOH      C1              0.8468275410        3.1208138788        0.9800827324  MEOH      914             0.0000000000
     23815      1606  MEOH      DC1             0.8557477010        3.1247368798        0.9943867272  MEOH      914             0.0000000000
     23816      1606  MEOH      O1              0.8666926343        4.5353914886        1.1844683412  MEOH      914             0.0000000000
     23817      1606  MEOH      DO1             0.8793318402        4.5435041284        1.1978897889  MEOH      914             0.0000000000
     23818      1606  MEOH      HO1             0.9899879916        4.9199819451        0.3025451951  MEOH      914             0.0000000000
     23819      1606  MEOH      HO2             0.0420812311        4.7269182620        1.6580013711  MEOH      914             0.0000000000
     23820      1606  MEOH      H1A             0.6754399759        2.6072712054        1.9502482989  MEOH      914             0.0000000000
     23821      1606  MEOH      H1B             1.8064462848        2.7763674016        0.5387104505  MEOH      914             0.0000000000
     23822      1606  MEOH      H1C             0.0276936086        2.8407097404        0.2837478471  MEOH      914             0.0000000000
     23823      1606  MEOH      LP1A            0.5415156180        4.6635576933        1.1662109565  MEOH      914             0.0000000000
     23824      1606  MEOH      LP1B            1.1937276618        4.6425480360        1.2482301252  MEOH      914             0.0000000000
     23825      1607  MEOH      C1             34.4202178344       22.5795623034      -28.4525693173  MEOH      915             0.0000000000
     23826      1607  MEOH      DC1            34.4223087333       22.5792476190      -28.4452961166  MEOH      915             0.0000000000
     23827      1607  MEOH      O1             33.3982327975       23.4871600265      -28.0318192963  MEOH      915             0.0000000000
     23828      1607  MEOH      DO1            33.3995423015       23.4895207302      -28.0310537487  MEOH      915             0.0000000000
     23829      1607  MEOH      HO1            33.4712063134       23.5987244122      -27.0710236599  MEOH      915             0.0000000000
     23830      1607  MEOH      HO2            33.4730355902       24.2555294099      -28.6191122665  MEOH      915             0.0000000000
     23831      1607  MEOH      H1A            34.3194830894       22.4054947946      -29.5452147375  MEOH      915             0.0000000000
     23832      1607  MEOH      H1B            34.3242519266       21.6123153322      -27.9144756068  MEOH      915             0.0000000000
     23833      1607  MEOH      H1C            35.4258831333       23.0091736070      -28.2566294381  MEOH      915             0.0000000000
     23834      1607  MEOH      LP1A           33.5166601454       23.8161661718      -28.0469823978  MEOH      915             0.0000000000
     23835      1607  MEOH      LP1B           33.1051257761       23.3110862687      -27.9570777025  MEOH      915             0.0000000000
     23836      1608  MEOH      C1             23.6599941385       -7.9806332634        7.2844921532  MEOH      916             0.0000000000
     23837      1608  MEOH      DC1            23.6494921726       -7.9749855354        7.2765591266  MEOH      916             0.0000000000
     23838      1608  MEOH      O1             23.9186276737       -6.5909081091        7.0665293311  MEOH      916             0.0000000000
     23839      1608  MEOH      DO1            23.9070537022       -6.5855019555        7.0510951307  MEOH      916             0.0000000000
     23840      1608  MEOH      HO1            23.8867083951       -6.1657161655        7.9377887475  MEOH      916             0.0000000000
     23841      1608  MEOH      HO2            24.7490721979       -6.5631439769        6.5660385263  MEOH      916             0.0000000000
     23842      1608  MEOH      H1A            23.7138905491       -8.5316427085        6.3212659237  MEOH      916             0.0000000000
     23843      1608  MEOH      H1B            22.6482983062       -8.1193502323        7.7221565744  MEOH      916             0.0000000000
     23844      1608  MEOH      H1C            24.4119198946       -8.4067661701        7.9825891412  MEOH      916             0.0000000000
     23845      1608  MEOH      LP1A           24.2629106585       -6.5295421556        7.0807927857  MEOH      916             0.0000000000
     23846      1608  MEOH      LP1B           23.6186434856       -6.4216048721        7.0045140040  MEOH      916             0.0000000000
     23847      1609  MEOH      C1             28.9706571079      -10.2675282557       -3.0338624493  MEOH      917             0.0000000000
     23848      1609  MEOH      DC1            28.9583233712      -10.2576555908       -3.0348803328  MEOH      917             0.0000000000
     23849      1609  MEOH      O1             28.3937259545       -9.0821023960       -3.5666400747  MEOH      917             0.0000000000
     23850      1609  MEOH      DO1            28.3828623579       -9.0822321828       -3.5864123135  MEOH      917             0.0000000000
     23851      1609  MEOH      HO1            27.4341446515       -9.2238358007       -3.5627202669  MEOH      917             0.0000000000
     23852      1609  MEOH      HO2            28.7628865567       -8.3699968649       -3.0211804852  MEOH      917             0.0000000000
     23853      1609  MEOH      H1A            30.0712919732      -10.1400714172       -2.9521394438  MEOH      917             0.0000000000
     23854      1609  MEOH      H1B            28.7584401401      -11.1247728198       -3.7079668303  MEOH      917             0.0000000000
     23855      1609  MEOH      H1C            28.5627700954      -10.4921767637       -2.0251592061  MEOH      917             0.0000000000
     23856      1609  MEOH      LP1A           28.3328051548       -8.8525959977       -3.3095107895  MEOH      917             0.0000000000
     23857      1609  MEOH      LP1B           28.3679831398       -9.1075014936       -3.9147667662  MEOH      917             0.0000000000
     23858      1610  MEOH      C1            -15.7847717993      -27.8270918952      -16.0073776309  MEOH      918             0.0000000000
     23859      1610  MEOH      DC1           -15.7837672603      -27.8263410038      -15.9882598324  MEOH      918             0.0000000000
     23860      1610  MEOH      O1            -16.5265312525      -28.4184301083      -17.0710677093  MEOH      918             0.0000000000
     23861      1610  MEOH      DO1           -16.5252428326      -28.4162615346      -17.0567517442  MEOH      918             0.0000000000
     23862      1610  MEOH      HO1           -17.0457746529      -29.1645207640      -16.7324897623  MEOH      918             0.0000000000
     23863      1610  MEOH      HO2           -16.9437239838      -27.6800476036      -17.5418558800  MEOH      918             0.0000000000
     23864      1610  MEOH      H1A           -15.0254026463      -27.1319461906      -16.4250520720  MEOH      918             0.0000000000
     23865      1610  MEOH      H1B           -15.2726516560      -28.6262656244      -15.4299910090  MEOH      918             0.0000000000
     23866      1610  MEOH      H1C           -16.4556226893      -27.2367980954      -15.3472009016  MEOH      918             0.0000000000
     23867      1610  MEOH      LP1A          -16.8377398629      -28.2612569384      -17.1018214978  MEOH      918             0.0000000000
     23868      1610  MEOH      LP1B          -16.3355366594      -28.6672636206      -17.2263189527  MEOH      918             0.0000000000
     23869      1611  MEOH      C1            -14.8890555841      -24.1881070901        1.4323847858  MEOH      919             0.0000000000
     23870      1611  MEOH      DC1           -14.8783275592      -24.1927024828        1.4407639236  MEOH      919             0.0000000000
     23871      1611  MEOH      O1            -14.5521077330      -25.1456390982        2.4316104306  MEOH      919             0.0000000000
     23872      1611  MEOH      DO1           -14.5408380348      -25.1539867092        2.4288388957  MEOH      919             0.0000000000
     23873      1611  MEOH      HO1           -15.3093812129      -25.1756492460        3.0370328184  MEOH      919             0.0000000000
     23874      1611  MEOH      HO2           -14.2936947069      -25.9448521750        1.9464494606  MEOH      919             0.0000000000
     23875      1611  MEOH      H1A           -14.0370571263      -24.0298253292        0.7371391354  MEOH      919             0.0000000000
     23876      1611  MEOH      H1B           -15.1621581880      -23.2204985600        1.9051106058  MEOH      919             0.0000000000
     23877      1611  MEOH      H1C           -15.7515779326      -24.5716184064        0.8464707403  MEOH      919             0.0000000000
     23878      1611  MEOH      LP1A          -14.6547876002      -25.4647724090        2.3310580821  MEOH      919             0.0000000000
     23879      1611  MEOH      LP1B          -14.3827001074      -24.9892799867        2.6949597892  MEOH      919             0.0000000000
     23880      1612  MEOH      C1              6.5760449361      -17.5849303502        2.4369781948  MEOH      920             0.0000000000
     23881      1612  MEOH      DC1             6.5848463471      -17.5764010180        2.4301412165  MEOH      920             0.0000000000
     23882      1612  MEOH      O1              6.3396149345      -18.6687052646        3.3414468494  MEOH      920             0.0000000000
     23883      1612  MEOH      DO1             6.3423031641      -18.6628376761        3.3421768636  MEOH      920             0.0000000000
     23884      1612  MEOH      HO1             6.8163744433      -18.4939668275        4.1679254332  MEOH      920             0.0000000000
     23885      1612  MEOH      HO2             5.3802886395      -18.8121818297        3.3441919656  MEOH      920             0.0000000000
     23886      1612  MEOH      H1A             6.1585300404      -17.8371713024        1.4387914316  MEOH      920             0.0000000000
     23887      1612  MEOH      H1B             7.6717789168      -17.4315380944        2.3361870218  MEOH      920             0.0000000000
     23888      1612  MEOH      H1C             6.1152873619      -16.6373801389        2.7893587489  MEOH      920             0.0000000000
     23889      1612  MEOH      LP1A            6.0530134811      -18.6052068251        3.5320447378  MEOH      920             0.0000000000
     23890      1612  MEOH      LP1B            6.5800680363      -18.9186191536        3.2942731920  MEOH      920             0.0000000000
     23891      1613  MEOH      C1             -2.1088351349      -36.6026117655       17.3447845696  MEOH      921             0.0000000000
     23892      1613  MEOH      DC1            -2.1100851180      -36.5993264007       17.3660018597  MEOH      921             0.0000000000
     23893      1613  MEOH      O1             -2.5178570938      -36.5173106380       18.7100035363  MEOH      921             0.0000000000
     23894      1613  MEOH      DO1            -2.5154275867      -36.5240081312       18.7333194045  MEOH      921             0.0000000000
     23895      1613  MEOH      HO1            -2.0724934896      -35.7242181509       19.0469836055  MEOH      921             0.0000000000
     23896      1613  MEOH      HO2            -3.4872093867      -36.5457100199       18.6887995665  MEOH      921             0.0000000000
     23897      1613  MEOH      H1A            -2.5816466390      -37.4752061224       16.8454356225  MEOH      921             0.0000000000
     23898      1613  MEOH      H1B            -1.0016377291      -36.6835289243       17.3013412976  MEOH      921             0.0000000000
     23899      1613  MEOH      H1C            -2.3809741308      -35.6791324709       16.7903052090  MEOH      921             0.0000000000
     23900      1613  MEOH      LP1A           -2.8137423435      -36.3320304553       18.7349669677  MEOH      921             0.0000000000
     23901      1613  MEOH      LP1B           -2.2968508279      -36.6978028016       18.9126826160  MEOH      921             0.0000000000
     23902      1614  MEOH      C1              8.1192842169      -34.5183086261       27.1533239446  MEOH      922             0.0000000000
     23903      1614  MEOH      DC1             8.1131678554      -34.5159159606       27.1555981455  MEOH      922             0.0000000000
     23904      1614  MEOH      O1              9.1883614934      -34.8517176891       28.0413379274  MEOH      922             0.0000000000
     23905      1614  MEOH      DO1             9.1810182274      -34.8545078847       28.0487319560  MEOH      922             0.0000000000
     23906      1614  MEOH      HO1             8.8643884638      -34.7603824489       28.9510628034  MEOH      922             0.0000000000
     23907      1614  MEOH      HO2             9.5616414512      -35.6877247480       27.7209408741  MEOH      922             0.0000000000
     23908      1614  MEOH      H1A             8.5005677661      -34.4738503215       26.1107466982  MEOH      922             0.0000000000
     23909      1614  MEOH      H1B             7.7190784962      -33.5167169178       27.4197267055  MEOH      922             0.0000000000
     23910      1614  MEOH      H1C             7.3130928215      -35.2808005824       27.2079357773  MEOH      922             0.0000000000
     23911      1614  MEOH      LP1A            9.1853862441      -35.1951750366       28.1086298168  MEOH      922             0.0000000000
     23912      1614  MEOH      LP1B            9.3772658884      -34.5661245586       28.1138064953  MEOH      922             0.0000000000
     23913      1615  MEOH      C1            -10.9267605977      -13.1187787023       21.9644427006  MEOH      923             0.0000000000
     23914      1615  MEOH      DC1           -10.9312036139      -13.1368527784       21.9512585626  MEOH      923             0.0000000000
     23915      1615  MEOH      O1            -11.1657207575      -14.3684910546       21.3121161052  MEOH      923             0.0000000000
     23916      1615  MEOH      DO1           -11.1637723645      -14.3811416205       21.3086816570  MEOH      923             0.0000000000
     23917      1615  MEOH      HO1           -11.2072691030      -15.0437361241       22.0072548189  MEOH      923             0.0000000000
     23918      1615  MEOH      HO2           -11.9243066791      -14.2215166950       20.7257323246  MEOH      923             0.0000000000
     23919      1615  MEOH      H1A           -10.8157344076      -12.3055892221       21.2156322743  MEOH      923             0.0000000000
     23920      1615  MEOH      H1B            -9.9939120432      -13.1658889860       22.5660199574  MEOH      923             0.0000000000
     23921      1615  MEOH      H1C           -11.7820050695      -12.8672258080       22.6274653517  MEOH      923             0.0000000000
     23922      1615  MEOH      LP1A          -11.5099712812      -14.4226100280       21.2795168161  MEOH      923             0.0000000000
     23923      1615  MEOH      LP1B          -10.8615471207      -14.5183050891       21.2253166020  MEOH      923             0.0000000000
     23924      1616  MEOH      C1             -8.8816698423       36.3442022741       19.4419907281  MEOH      924             0.0000000000
     23925      1616  MEOH      DC1            -8.8865347746       36.3420413558       19.4466720231  MEOH      924             0.0000000000
     23926      1616  MEOH      O1             -9.1220493298       35.5446633889       18.2794884080  MEOH      924             0.0000000000
     23927      1616  MEOH      DO1            -9.1299438170       35.5490170747       18.2880162008  MEOH      924             0.0000000000
     23928      1616  MEOH      HO1            -8.2729112935       35.2126493560       17.9483822646  MEOH      924             0.0000000000
     23929      1616  MEOH      HO2            -9.8314631075       34.9254769978       18.5123838890  MEOH      924             0.0000000000
     23930      1616  MEOH      H1A            -9.8140066411       36.8757694854       19.7292282532  MEOH      924             0.0000000000
     23931      1616  MEOH      H1B            -8.1085411451       37.1134111206       19.2300691177  MEOH      924             0.0000000000
     23932      1616  MEOH      H1C            -8.5510599631       35.7040651921       20.2877109088  MEOH      924             0.0000000000
     23933      1616  MEOH      LP1A           -9.1781137090       35.2119482919       18.3725338252  MEOH      924             0.0000000000
     23934      1616  MEOH      LP1B           -9.1174621536       35.7456066425       17.9929560946  MEOH      924             0.0000000000
     23935      1617  MEOH      C1             -8.4007531297      -11.2690012140       -6.6734911454  MEOH      925             0.0000000000
     23936      1617  MEOH      DC1            -8.4035326606      -11.2627561282       -6.6500492817  MEOH      925             0.0000000000
     23937      1617  MEOH      O1             -7.3689988834      -12.2572202328       -6.6818855715  MEOH      925             0.0000000000
     23938      1617  MEOH      DO1            -7.3509394320      -12.2466894350       -6.6646411965  MEOH      925             0.0000000000
     23939      1617  MEOH      HO1            -7.8389958534      -13.0875268334       -6.8567964010  MEOH      925             0.0000000000
     23940      1617  MEOH      HO2            -6.7481177711      -11.9539653907       -7.3626521579  MEOH      925             0.0000000000
     23941      1617  MEOH      H1A            -7.9565679226      -10.2509995065       -6.6998165512  MEOH      925             0.0000000000
     23942      1617  MEOH      H1B            -9.0393676887      -11.3952493623       -5.7731835032  MEOH      925             0.0000000000
     23943      1617  MEOH      H1C            -9.0388608256      -11.3895909812       -7.5749331438  MEOH      925             0.0000000000
     23944      1617  MEOH      LP1A           -7.2380635662      -12.2908377956       -7.0047257830  MEOH      925             0.0000000000
     23945      1617  MEOH      LP1B           -7.3192238719      -12.3810643238       -6.3583348191  MEOH      925             0.0000000000
     23946      1618  MEOH      C1            -32.1032203436       -1.8581406453      -24.8181727542  MEOH      926             0.0000000000
     23947      1618  MEOH      DC1           -32.1186664021       -1.8578540935      -24.8206181376  MEOH      926             0.0000000000
     23948      1618  MEOH      O1            -33.4839188699       -1.9250713176      -25.1751447894  MEOH      926             0.0000000000
     23949      1618  MEOH      DO1           -33.4978829143       -1.9242499064      -25.1803410170  MEOH      926             0.0000000000
     23950      1618  MEOH      HO1           -33.9442427723       -2.3491647111      -24.4341004588  MEOH      926             0.0000000000
     23951      1618  MEOH      HO2           -33.7274846814       -1.0426883643      -25.4960435570  MEOH      926             0.0000000000
     23952      1618  MEOH      H1A           -31.4998741875       -1.4575911179      -25.6607013839  MEOH      926             0.0000000000
     23953      1618  MEOH      H1B           -31.7182313077       -2.8684978547      -24.5626678539  MEOH      926             0.0000000000
     23954      1618  MEOH      H1C           -31.9633714750       -1.1920275368      -23.9400744558  MEOH      926             0.0000000000
     23955      1618  MEOH      LP1A          -33.6483595635       -1.6336500591      -25.0725148310  MEOH      926             0.0000000000
     23956      1618  MEOH      LP1B          -33.5486701767       -2.2226367880      -25.3476616267  MEOH      926             0.0000000000
     23957      1619  MEOH      C1              2.5505921038      -32.9193954023      -22.8893157477  MEOH      927             0.0000000000
     23958      1619  MEOH      DC1             2.5534626280      -32.9220313632      -22.8857981955  MEOH      927             0.0000000000
     23959      1619  MEOH      O1              2.4610198611      -33.6922802102      -24.0888134333  MEOH      927             0.0000000000
     23960      1619  MEOH      DO1             2.4637849768      -33.6920913042      -24.0869009809  MEOH      927             0.0000000000
     23961      1619  MEOH      HO1             2.7150822793      -34.6032515076      -23.8732129137  MEOH      927             0.0000000000
     23962      1619  MEOH      HO2             1.5811333048      -33.5097147255      -24.4540113136  MEOH      927             0.0000000000
     23963      1619  MEOH      H1A             2.3314003898      -31.8544068126      -23.1175158726  MEOH      927             0.0000000000
     23964      1619  MEOH      H1B             3.5742137877      -32.9918393361      -22.4635558098  MEOH      927             0.0000000000
     23965      1619  MEOH      H1C             1.8111447637      -33.2858531149      -22.1455097394  MEOH      927             0.0000000000
     23966      1619  MEOH      LP1A            2.1383004536      -33.8233860335      -24.1229227734  MEOH      927             0.0000000000
     23967      1619  MEOH      LP1B            2.7653529774      -33.6812618297      -24.2613241566  MEOH      927             0.0000000000
     23968      1620  MEOH      C1            -16.9524938398       12.4134710133       29.5353303712  MEOH      928             0.0000000000
     23969      1620  MEOH      DC1           -16.9480427568       12.4381839843       29.5355200889  MEOH      928             0.0000000000
     23970      1620  MEOH      O1            -16.4188292026       13.7206572779       29.3275274600  MEOH      928             0.0000000000
     23971      1620  MEOH      DO1           -16.4123394269       13.7388917301       29.3256089054  MEOH      928             0.0000000000
     23972      1620  MEOH      HO1           -15.4744100640       13.6365719502       29.5322276057  MEOH      928             0.0000000000
     23973      1620  MEOH      HO2           -16.7037270513       13.9774582456       28.4365805038  MEOH      928             0.0000000000
     23974      1620  MEOH      H1A           -18.0504863263       12.4211818089       29.3659962536  MEOH      928             0.0000000000
     23975      1620  MEOH      H1B           -16.7607754041       12.0704500328       30.5745135359  MEOH      928             0.0000000000
     23976      1620  MEOH      H1C           -16.4802646401       11.6983235015       28.8283051807  MEOH      928             0.0000000000
     23977      1620  MEOH      LP1A          -16.3178539466       13.7571687879       28.9944044988  MEOH      928             0.0000000000
     23978      1620  MEOH      LP1B          -16.4407065908       13.9072270551       29.6228460983  MEOH      928             0.0000000000
     23979      1621  MEOH      C1             -1.5405491200      -26.1358269845        8.7852224065  MEOH      929             0.0000000000
     23980      1621  MEOH      DC1            -1.5375837739      -26.1267636093        8.7843951961  MEOH      929             0.0000000000
     23981      1621  MEOH      O1             -2.2624115307      -24.9112525774        8.8525928028  MEOH      929             0.0000000000
     23982      1621  MEOH      DO1            -2.2584543628      -24.9104959347        8.8521027642  MEOH      929             0.0000000000
     23983      1621  MEOH      HO1            -2.0340180689      -24.3737304937        8.0781210886  MEOH      929             0.0000000000
     23984      1621  MEOH      HO2            -3.1862708096      -25.1460578465        9.0321770977  MEOH      929             0.0000000000
     23985      1621  MEOH      H1A            -1.6813690519      -26.7014459418        9.7310373685  MEOH      929             0.0000000000
     23986      1621  MEOH      H1B            -0.4571627176      -25.9350880504        8.6427486067  MEOH      929             0.0000000000
     23987      1621  MEOH      H1C            -1.9188695902      -26.7501125155        7.9403272003  MEOH      929             0.0000000000
     23988      1621  MEOH      LP1A           -2.5730804129      -24.9466199736        8.6953223577  MEOH      929             0.0000000000
     23989      1621  MEOH      LP1B           -2.0780016255      -24.6732511982        9.0310538080  MEOH      929             0.0000000000
     23990      1622  MEOH      C1            -12.9201560364      -14.7428128394       26.9795472930  MEOH      930             0.0000000000
     23991      1622  MEOH      DC1           -12.9138733255      -14.7449952434       26.9722126741  MEOH      930             0.0000000000
     23992      1622  MEOH      O1            -11.8049011291      -15.4418210352       26.4250615433  MEOH      930             0.0000000000
     23993      1622  MEOH      DO1           -11.8024532470      -15.4513618903       26.4194061628  MEOH      930             0.0000000000
     23994      1622  MEOH      HO1           -11.8826625594      -15.3665717393       25.4611161593  MEOH      930             0.0000000000
     23995      1622  MEOH      HO2           -11.0261204968      -15.0724048388       26.8699574890  MEOH      930             0.0000000000
     23996      1622  MEOH      H1A           -12.9183330264      -14.8340304414       28.0867947933  MEOH      930             0.0000000000
     23997      1622  MEOH      H1B           -13.8681578561      -15.1670272821       26.5850150933  MEOH      930             0.0000000000
     23998      1622  MEOH      H1C           -12.8550075122      -13.6654713171       26.7160858796  MEOH      930             0.0000000000
     23999      1622  MEOH      LP1A          -11.5324092412      -15.2247924046       26.3911979265  MEOH      930             0.0000000000
     24000      1622  MEOH      LP1B          -11.8868158074      -15.7786250766       26.3765535728  MEOH      930             0.0000000000
     24001      1623  MEOH      C1              3.6251694728       18.0687513938      -36.2503913109  MEOH      931             0.0000000000
     24002      1623  MEOH      DC1             3.6314414057       18.0603380848      -36.2678084315  MEOH      931             0.0000000000
     24003      1623  MEOH      O1              3.6822950068       16.8924338500      -37.0768726961  MEOH      931             0.0000000000
     24004      1623  MEOH      DO1             3.6768959434       16.9580543376      -37.1611305288  MEOH      931             0.0000000000
     24005      1623  MEOH      HO1             2.9087787666       16.3090821823      -37.0291918901  MEOH      931             0.0000000000
     24006      1623  MEOH      HO2             4.5526239784       16.7541751964      -37.4822268943  MEOH      931             0.0000000000
     24007      1623  MEOH      H1A             4.5385515782       18.1409557758      -35.6220278353  MEOH      931             0.0000000000
     24008      1623  MEOH      H1B             2.7282758824       18.0599163197      -35.5947810387  MEOH      931             0.0000000000
     24009      1623  MEOH      H1C             3.5561452181       18.9859567399      -36.8735213196  MEOH      931             0.0000000000
     24010      1623  MEOH      LP1A            3.5516306773       16.9624386772      -37.3939312982  MEOH      931             0.0000000000
     24011      1623  MEOH      LP1B            3.8328328088       16.6298485536      -36.9011247736  MEOH      931             0.0000000000
     24012      1624  MEOH      C1             35.4300182839       -0.3873689697      -31.3759258070  MEOH      932             0.0000000000
     24013      1624  MEOH      DC1            35.4336283213       -0.3997194844      -31.3751063010  MEOH      932             0.0000000000
     24014      1624  MEOH      O1             34.0371524722       -0.2832983360      -31.0689718400  MEOH      932             0.0000000000
     24015      1624  MEOH      DO1            34.0437288350       -0.2944735543      -31.0645925432  MEOH      932             0.0000000000
     24016      1624  MEOH      HO1            33.6117057133        0.2190958352      -31.7813587803  MEOH      932             0.0000000000
     24017      1624  MEOH      HO2            33.7372688227       -1.1801166190      -30.8529006390  MEOH      932             0.0000000000
     24018      1624  MEOH      H1A            35.9665263274       -0.8442805609      -30.5170242308  MEOH      932             0.0000000000
     24019      1624  MEOH      H1B            35.8560001277        0.6217445903      -31.5618028948  MEOH      932             0.0000000000
     24020      1624  MEOH      H1C            35.5732099786       -1.0163727392      -32.2804540808  MEOH      932             0.0000000000
     24021      1624  MEOH      LP1A           33.8645170459       -0.5572875331      -31.2017382869  MEOH      932             0.0000000000
     24022      1624  MEOH      LP1B           33.9782849014        0.0021353428      -30.8751620773  MEOH      932             0.0000000000
     24023      1625  MEOH      C1              5.0911045204       36.4366983716        0.5044296114  MEOH      933             0.0000000000
     24024      1625  MEOH      DC1             5.0990105054       36.4343713560        0.5042807062  MEOH      933             0.0000000000
     24025      1625  MEOH      O1              3.9162361001       36.4750256673        1.3112035161  MEOH      933             0.0000000000
     24026      1625  MEOH      DO1             3.9199571552       36.4576699008        1.2937967969  MEOH      933             0.0000000000
     24027      1625  MEOH      HO1             3.5596012271       37.3764960328        1.3438033356  MEOH      933             0.0000000000
     24028      1625  MEOH      HO2             3.3688785929       35.7180132057        1.0499911654  MEOH      933             0.0000000000
     24029      1625  MEOH      H1A             5.6446923632       35.5007663024        0.7322292216  MEOH      933             0.0000000000
     24030      1625  MEOH      H1B             5.7416251975       37.3070501113        0.7360147963  MEOH      933             0.0000000000
     24031      1625  MEOH      H1C             4.8297558984       36.4423158429       -0.5753788638  MEOH      933             0.0000000000
     24032      1625  MEOH      LP1A            3.6340161726       36.4093754349        1.1148824538  MEOH      933             0.0000000000
     24033      1625  MEOH      LP1B            4.0021662614       36.5358505934        1.6449943724  MEOH      933             0.0000000000
     24034      1626  MEOH      C1             20.4766156233       36.3160806092      -32.6499829886  MEOH      934             0.0000000000
     24035      1626  MEOH      DC1            20.4723614863       36.2947489533      -32.6496883073  MEOH      934             0.0000000000
     24036      1626  MEOH      O1             19.0703024060       36.3726508364      -32.4469600461  MEOH      934             0.0000000000
     24037      1626  MEOH      DO1            19.0622659429       36.3549389395      -32.4550921931  MEOH      934             0.0000000000
     24038      1626  MEOH      HO1            18.8117198339       37.2279310688      -32.8244925314  MEOH      934             0.0000000000
     24039      1626  MEOH      HO2            18.7003975592       35.5329427805      -32.7615403795  MEOH      934             0.0000000000
     24040      1626  MEOH      H1A            20.8867750722       35.5500080095      -31.9577236435  MEOH      934             0.0000000000
     24041      1626  MEOH      H1B            20.9533910127       37.2857102468      -32.3914784534  MEOH      934             0.0000000000
     24042      1626  MEOH      H1C            20.7048232533       36.0697781320      -33.7090284868  MEOH      934             0.0000000000
     24043      1626  MEOH      LP1A           18.9041455408       36.2288587735      -32.7193857035  MEOH      934             0.0000000000
     24044      1626  MEOH      LP1B           18.9999984109       36.5156462765      -32.1353358295  MEOH      934             0.0000000000
     24045      1627  MEOH      C1             26.2356035877      -10.0487562792      -30.4711174803  MEOH      935             0.0000000000
     24046      1627  MEOH      DC1            26.2370516181      -10.0566523259      -30.4841414126  MEOH      935             0.0000000000
     24047      1627  MEOH      O1             27.3305766791       -9.1359180044      -30.5047794123  MEOH      935             0.0000000000
     24048      1627  MEOH      DO1            27.3293863507       -9.1345186473      -30.5205365869  MEOH      935             0.0000000000
     24049      1627  MEOH      HO1            28.1573366269       -9.6426153467      -30.5297952478  MEOH      935             0.0000000000
     24050      1627  MEOH      HO2            27.1139214263       -8.4546258450      -31.1603718893  MEOH      935             0.0000000000
     24051      1627  MEOH      H1A            25.3127440839       -9.4995795856      -30.1864136058  MEOH      935             0.0000000000
     24052      1627  MEOH      H1B            26.4292355971      -10.8414306921      -29.7171314593  MEOH      935             0.0000000000
     24053      1627  MEOH      H1C            26.0948689146      -10.5083233503      -31.4727725407  MEOH      935             0.0000000000
     24054      1627  MEOH      LP1A           27.4088119803       -9.0549873105      -30.8361846935  MEOH      935             0.0000000000
     24055      1627  MEOH      LP1B           27.4288377240       -9.0547670974      -30.1788050309  MEOH      935             0.0000000000
     24056      1628  MEOH      C1             31.8482199092        1.3343368670       31.1207007364  MEOH      936             0.0000000000
     24057      1628  MEOH      DC1            31.8708235030        1.3249762975       31.1108373517  MEOH      936             0.0000000000
     24058      1628  MEOH      O1             33.0351889177        0.6882966904       30.6597099884  MEOH      936             0.0000000000
     24059      1628  MEOH      DO1            33.0494441949        0.6840755535       30.6510750803  MEOH      936             0.0000000000
     24060      1628  MEOH      HO1            33.6768354656        0.7552869686       31.3840731641  MEOH      936             0.0000000000
     24061      1628  MEOH      HO2            32.7495806106       -0.1898912532       30.3628702488  MEOH      936             0.0000000000
     24062      1628  MEOH      H1A            31.0618567161        1.2914975933       30.3370434605  MEOH      936             0.0000000000
     24063      1628  MEOH      H1B            32.0366675380        2.4048245240       31.3506239133  MEOH      936             0.0000000000
     24064      1628  MEOH      H1C            31.4647521005        0.8333423257       32.0351830550  MEOH      936             0.0000000000
     24065      1628  MEOH      LP1A           33.0241067673        0.3473824761       30.7381617851  MEOH      936             0.0000000000
     24066      1628  MEOH      LP1B           33.2401471714        0.9185611106       30.4939679869  MEOH      936             0.0000000000
     24067      1629  MEOH      C1              3.6990753290      -14.1750222144        9.7315793017  MEOH      937             0.0000000000
     24068      1629  MEOH      DC1             3.6951301156      -14.1851881889        9.7216890418  MEOH      937             0.0000000000
     24069      1629  MEOH      O1              4.8816729658      -14.3702701483       10.5040144586  MEOH      937             0.0000000000
     24070      1629  MEOH      DO1             4.8782221671      -14.3764438736       10.4883026796  MEOH      937             0.0000000000
     24071      1629  MEOH      HO1             5.2483389009      -13.5046427915       10.7430654390  MEOH      937             0.0000000000
     24072      1629  MEOH      HO2             4.6398067976      -14.9938137121       11.2065770405  MEOH      937             0.0000000000
     24073      1629  MEOH      H1A             3.2427187995      -15.1604747821        9.4971801627  MEOH      937             0.0000000000
     24074      1629  MEOH      H1B             3.9524713603      -13.6509593129        8.7852867851  MEOH      937             0.0000000000
     24075      1629  MEOH      H1C             2.9701371107      -13.5690726321       10.3110576686  MEOH      937             0.0000000000
     24076      1629  MEOH      LP1A            4.8004792900      -14.3922151335       10.8437584868  MEOH      937             0.0000000000
     24077      1629  MEOH      LP1B            5.1601046972      -14.3924788438       10.2931056045  MEOH      937             0.0000000000
     24078      1630  MEOH      C1              2.1791238176       23.2438965737      -10.7621953192  MEOH      938             0.0000000000
     24079      1630  MEOH      DC1             2.1935165062       23.2441295498      -10.7579907531  MEOH      938             0.0000000000
     24080      1630  MEOH      O1              1.0116330407       22.4332679241      -10.8193540146  MEOH      938             0.0000000000
     24081      1630  MEOH      DO1             1.0267857427       22.4160501261      -10.8106938005  MEOH      938             0.0000000000
     24082      1630  MEOH      HO1             0.8429808883       22.2141517749      -11.7491091247  MEOH      938             0.0000000000
     24083      1630  MEOH      HO2             1.0942541246       21.7700516663      -10.1163476465  MEOH      938             0.0000000000
     24084      1630  MEOH      H1A             2.2641128031       23.6861413950       -9.7465588732  MEOH      938             0.0000000000
     24085      1630  MEOH      H1B             2.0948933284       24.0669891328      -11.5036431363  MEOH      938             0.0000000000
     24086      1630  MEOH      H1C             3.0774335164       22.6287228056      -10.9833783219  MEOH      938             0.0000000000
     24087      1630  MEOH      LP1A            1.0986856005       22.0956648050      -10.7885971321  MEOH      938             0.0000000000
     24088      1630  MEOH      LP1B            0.7271093321       22.6350299774      -10.8483079974  MEOH      938             0.0000000000
     24089      1631  MEOH      C1            -17.7861244592       10.7638916265       21.0839985555  MEOH      939             0.0000000000
     24090      1631  MEOH      DC1           -17.7779221492       10.7723464817       21.0927013889  MEOH      939             0.0000000000
     24091      1631  MEOH      O1            -19.1690032180       10.4275672976       21.2178575573  MEOH      939             0.0000000000
     24092      1631  MEOH      DO1           -19.1672567511       10.4391982360       21.2302302519  MEOH      939             0.0000000000
     24093      1631  MEOH      HO1           -19.2474928035        9.7036618675       21.8587166004  MEOH      939             0.0000000000
     24094      1631  MEOH      HO2           -19.6551682518       11.2614187709       21.3139579289  MEOH      939             0.0000000000
     24095      1631  MEOH      H1A           -17.6534028911       11.4318658562       20.2062079110  MEOH      939             0.0000000000
     24096      1631  MEOH      H1B           -17.1861534357        9.8431131323       20.9211405314  MEOH      939             0.0000000000
     24097      1631  MEOH      H1C           -17.4341872883       11.2850127205       21.9999101414  MEOH      939             0.0000000000
     24098      1631  MEOH      LP1A          -19.3158190978       10.6223507344       21.4688645495  MEOH      939             0.0000000000
     24099      1631  MEOH      LP1B          -19.2565145483       10.1845852667       20.9816341467  MEOH      939             0.0000000000
     24100      1632  MEOH      C1            -27.3054562130       35.5922693838       35.4753264743  MEOH      940             0.0000000000
     24101      1632  MEOH      DC1           -27.3092016852       35.5924034706       35.4634840178  MEOH      940             0.0000000000
     24102      1632  MEOH      O1            -25.9408100837       35.2145779295       35.2747895167  MEOH      940             0.0000000000
     24103      1632  MEOH      DO1           -25.9427049958       35.2112930574       35.2623995809  MEOH      940             0.0000000000
     24104      1632  MEOH      HO1           -25.5708659019       35.7990308045       34.5947482383  MEOH      940             0.0000000000
     24105      1632  MEOH      HO2           -25.5449761701       35.2108835927       36.1603412457  MEOH      940             0.0000000000
     24106      1632  MEOH      H1A           -27.7623657017       34.9315845908       36.2428226138  MEOH      940             0.0000000000
     24107      1632  MEOH      H1B           -27.8749121812       35.4908966870       34.5267673161  MEOH      940             0.0000000000
     24108      1632  MEOH      H1C           -27.3630345506       36.6393762029       35.8421684648  MEOH      940             0.0000000000
     24109      1632  MEOH      LP1A          -25.7340856821       35.3912512565       35.4951336958  MEOH      940             0.0000000000
     24110      1632  MEOH      LP1B          -25.9201846367       34.9664511978       35.0288063548  MEOH      940             0.0000000000
     24111      1633  MEOH      C1            -13.9452179894       21.7691443235      -24.5165762473  MEOH      941             0.0000000000
     24112      1633  MEOH      DC1           -13.9340205137       21.7779097025      -24.5294574409  MEOH      941             0.0000000000
     24113      1633  MEOH      O1            -14.9229100256       20.7299652852      -24.4699906501  MEOH      941             0.0000000000
     24114      1633  MEOH      DO1           -14.9160275768       20.7388647232      -24.4790446593  MEOH      941             0.0000000000
     24115      1633  MEOH      HO1           -15.8129705176       21.1092056786      -24.5397692019  MEOH      941             0.0000000000
     24116      1633  MEOH      HO2           -14.6172315767       20.0259608666      -25.0631503795  MEOH      941             0.0000000000
     24117      1633  MEOH      H1A           -12.9558631071       21.3575019509      -24.2232360453  MEOH      941             0.0000000000
     24118      1633  MEOH      H1B           -14.2283914368       22.5845019614      -23.8170580395  MEOH      941             0.0000000000
     24119      1633  MEOH      H1C           -13.8698145427       22.1686198603      -25.5505272212  MEOH      941             0.0000000000
     24120      1633  MEOH      LP1A          -14.9868604288       20.6112066631      -24.7929561833  MEOH      941             0.0000000000
     24121      1633  MEOH      LP1B          -15.0145752265       20.6666339327      -24.1381975960  MEOH      941             0.0000000000
     24122      1634  MEOH      C1             34.4546954119       21.7973998410       33.5991676990  MEOH      942             0.0000000000
     24123      1634  MEOH      DC1            34.4634934451       21.7817505455       33.5916736446  MEOH      942             0.0000000000
     24124      1634  MEOH      O1             34.1875942845       20.9591970972       32.4686125137  MEOH      942             0.0000000000
     24125      1634  MEOH      DO1            34.1964231026       20.9380594883       32.4700953501  MEOH      942             0.0000000000
     24126      1634  MEOH      HO1            33.6664826217       21.4905432942       31.8465081384  MEOH      942             0.0000000000
     24127      1634  MEOH      HO2            35.0418003878       20.5872066320       32.1986958089  MEOH      942             0.0000000000
     24128      1634  MEOH      H1A            34.9952376177       21.2177968472       34.3777532724  MEOH      942             0.0000000000
     24129      1634  MEOH      H1B            33.5044735973       22.1815932012       34.0278808493  MEOH      942             0.0000000000
     24130      1634  MEOH      H1C            35.0716993326       22.6740109158       33.3073112515  MEOH      942             0.0000000000
     24131      1634  MEOH      LP1A           34.4453004140       20.9893286176       32.2337090394  MEOH      942             0.0000000000
     24132      1634  MEOH      LP1B           33.8910451501       20.7804118177       32.5195481076  MEOH      942             0.0000000000
     24133      1635  MEOH      C1             27.7245561071      -35.3781448054       -6.6885562329  MEOH      943             0.0000000000
     24134      1635  MEOH      DC1            27.7121844481      -35.3759062735       -6.6880420689  MEOH      943             0.0000000000
     24135      1635  MEOH      O1             26.6881923768      -34.9697647290       -7.5791513560  MEOH      943             0.0000000000
     24136      1635  MEOH      DO1            26.6784341943      -34.9769186489       -7.5862737416  MEOH      943             0.0000000000
     24137      1635  MEOH      HO1            26.1128693071      -34.3603243666       -7.0908012649  MEOH      943             0.0000000000
     24138      1635  MEOH      HO2            27.1429488608      -34.6485174304       -8.3734414248  MEOH      943             0.0000000000
     24139      1635  MEOH      H1A            28.4169140267      -36.0671479159       -7.2179296602  MEOH      943             0.0000000000
     24140      1635  MEOH      H1B            27.2841328540      -35.9035403200       -5.8143091789  MEOH      943             0.0000000000
     24141      1635  MEOH      H1C            28.3008283864      -34.4929050303       -6.3441991472  MEOH      943             0.0000000000
     24142      1635  MEOH      LP1A           26.7882080430      -34.6852500950       -7.7567697378  MEOH      943             0.0000000000
     24143      1635  MEOH      LP1B           26.4187406425      -35.1922558790       -7.5593157567  MEOH      943             0.0000000000
     24144      1636  MEOH      C1             -7.1156181528       21.8788966624      -24.0017710132  MEOH      944             0.0000000000
     24145      1636  MEOH      DC1            -7.1308674963       21.8840456535      -24.0140884931  MEOH      944             0.0000000000
     24146      1636  MEOH      O1             -6.2076741325       21.2636839994      -24.9185820499  MEOH      944             0.0000000000
     24147      1636  MEOH      DO1            -6.2386264268       21.2834452418      -24.9392390163  MEOH      944             0.0000000000
     24148      1636  MEOH      HO1            -5.3099195201       21.5172119388      -24.6527621102  MEOH      944             0.0000000000
     24149      1636  MEOH      HO2            -6.4125479085       20.3170444215      -24.8656647047  MEOH      944             0.0000000000
     24150      1636  MEOH      H1A            -8.1216463473       21.4186610369      -24.1038074814  MEOH      944             0.0000000000
     24151      1636  MEOH      H1B            -7.1845870024       22.9684503863      -24.2077733983  MEOH      944             0.0000000000
     24152      1636  MEOH      H1C            -6.7734568885       21.7209305851      -22.9566426057  MEOH      944             0.0000000000
     24153      1636  MEOH      LP1A           -6.1189369246       20.9452246002      -24.8036502486  MEOH      944             0.0000000000
     24154      1636  MEOH      LP1B           -6.1531917178       21.4744084679      -25.1926748533  MEOH      944             0.0000000000
     24155      1637  MEOH      C1             -6.1769640867      -25.2452540539       -0.4490040539  MEOH      945             0.0000000000
     24156      1637  MEOH      DC1            -6.1837724298      -25.2316667449       -0.4516239402  MEOH      945             0.0000000000
     24157      1637  MEOH      O1             -7.5949716120      -25.3810563965       -0.5579792241  MEOH      945             0.0000000000
     24158      1637  MEOH      DO1            -7.6019700981      -25.3699012316       -0.5526088926  MEOH      945             0.0000000000
     24159      1637  MEOH      HO1            -7.7656641446      -25.8679777907       -1.3793631884  MEOH      945             0.0000000000
     24160      1637  MEOH      HO2            -7.8806005099      -25.7585440898        0.2886725190  MEOH      945             0.0000000000
     24161      1637  MEOH      H1A            -5.9071429581      -24.6659219174        0.4597818583  MEOH      945             0.0000000000
     24162      1637  MEOH      H1B            -5.7631591864      -24.7410174686       -1.3483549155  MEOH      945             0.0000000000
     24163      1637  MEOH      H1C            -5.7123405842      -26.2505179876       -0.3601759879  MEOH      945             0.0000000000
     24164      1637  MEOH      LP1A           -7.6999513948      -25.6735018122       -0.3968739045  MEOH      945             0.0000000000
     24165      1637  MEOH      LP1B           -7.7289256854      -25.1056798763       -0.7274610177  MEOH      945             0.0000000000
     24166      1638  MEOH      C1              0.4723283267       29.4228492116      -17.9048434945  MEOH      946             0.0000000000
     24167      1638  MEOH      DC1             0.4918739856       29.4420395369      -17.9169991285  MEOH      946             0.0000000000
     24168      1638  MEOH      O1             -0.0795813897       28.3477399787      -17.1524894711  MEOH      946             0.0000000000
     24169      1638  MEOH      DO1            -0.0774742954       28.3522620772      -17.1719338341  MEOH      946             0.0000000000
     24170      1638  MEOH      HO1            -1.0443488115       28.4465369833      -17.1715413371  MEOH      946             0.0000000000
     24171      1638  MEOH      HO2             0.3455601097       27.5382510332      -17.4763449227  MEOH      946             0.0000000000
     24172      1638  MEOH      H1A             1.5805970495       29.3814443887      -17.8389111077  MEOH      946             0.0000000000
     24173      1638  MEOH      H1B             0.1018379341       30.3873580861      -17.4964558109  MEOH      946             0.0000000000
     24174      1638  MEOH      H1C             0.1499665414       29.3264967242      -18.9636730747  MEOH      946             0.0000000000
     24175      1638  MEOH      LP1A           -0.1341411127       28.0716400528      -17.3605569302  MEOH      946             0.0000000000
     24176      1638  MEOH      LP1B           -0.1072706297       28.4390925000      -16.8157580902  MEOH      946             0.0000000000
     24177      1639  MEOH      C1             17.8966222495      -11.8164691016      -33.6553421332  MEOH      947             0.0000000000
     24178      1639  MEOH      DC1            17.8981392191      -11.8222854619      -33.6656462886  MEOH      947             0.0000000000
     24179      1639  MEOH      O1             18.7800819278      -12.3016186479      -34.6706766079  MEOH      947             0.0000000000
     24180      1639  MEOH      DO1            18.7802280368      -12.3130239096      -34.6835107537  MEOH      947             0.0000000000
     24181      1639  MEOH      HO1            19.4711454619      -11.6273073697      -34.7636039565  MEOH      947             0.0000000000
     24182      1639  MEOH      HO2            19.0168037582      -13.2026594254      -34.4005131501  MEOH      947             0.0000000000
     24183      1639  MEOH      H1A            17.0622751699      -12.5344321478      -33.5046271203  MEOH      947             0.0000000000
     24184      1639  MEOH      H1B            17.4785616370      -10.8300110823      -33.9493606750  MEOH      947             0.0000000000
     24185      1639  MEOH      H1C            18.4459860936      -11.7060277596      -32.6960074277  MEOH      947             0.0000000000
     24186      1639  MEOH      LP1A           19.0304621593      -12.4994845448      -34.5269448211  MEOH      947             0.0000000000
     24187      1639  MEOH      LP1B           18.6710506006      -12.1943353035      -34.9854820299  MEOH      947             0.0000000000
     24188      1640  MEOH      C1             -5.4802901011       34.2785042153       30.7485077167  MEOH      948             0.0000000000
     24189      1640  MEOH      DC1            -5.4742589949       34.2745098352       30.7558223917  MEOH      948             0.0000000000
     24190      1640  MEOH      O1             -6.4582342179       33.2612390324       30.9721787684  MEOH      948             0.0000000000
     24191      1640  MEOH      DO1            -6.4556036173       33.2554625143       30.9716787632  MEOH      948             0.0000000000
     24192      1640  MEOH      HO1            -7.2662488215       33.5404203036       30.5138445900  MEOH      948             0.0000000000
     24193      1640  MEOH      HO2            -6.0285192891       32.4222265215       30.7434800876  MEOH      948             0.0000000000
     24194      1640  MEOH      H1A            -4.5767826200       34.0594527570       31.3567935794  MEOH      948             0.0000000000
     24195      1640  MEOH      H1B            -5.8836824558       35.2695107142       31.0476761096  MEOH      948             0.0000000000
     24196      1640  MEOH      H1C            -5.2036214115       34.3075698623       29.6729006203  MEOH      948             0.0000000000
     24197      1640  MEOH      LP1A           -6.4362113884       33.0170284468       30.7224265214  MEOH      948             0.0000000000
     24198      1640  MEOH      LP1B           -6.6365302112       33.3290409316       31.2656296864  MEOH      948             0.0000000000
     24199      1641  MEOH      C1              8.4221683379       10.2173861558       18.9573062081  MEOH      949             0.0000000000
     24200      1641  MEOH      DC1             8.4401489889       10.2334048568       18.9434130501  MEOH      949             0.0000000000
     24201      1641  MEOH      O1              9.0522407119       11.1425250450       18.0648805506  MEOH      949             0.0000000000
     24202      1641  MEOH      DO1             9.0757161147       11.1569678947       18.0448875860  MEOH      949             0.0000000000
     24203      1641  MEOH      HO1             8.3016575170       11.6134369057       17.6702074092  MEOH      949             0.0000000000
     24204      1641  MEOH      HO2             9.6970452755       11.6210915429       18.6090323510  MEOH      949             0.0000000000
     24205      1641  MEOH      H1A             9.1700003165        9.5808639331       19.4768327154  MEOH      949             0.0000000000
     24206      1641  MEOH      H1B             7.7257373785        9.5612395176       18.3927032417  MEOH      949             0.0000000000
     24207      1641  MEOH      H1C             7.8184951021       10.7672091223       19.7106947736  MEOH      949             0.0000000000
     24208      1641  MEOH      LP1A            9.1234812286       11.4412295539       18.2328103132  MEOH      949             0.0000000000
     24209      1641  MEOH      LP1B            9.0966727842       10.9945487059       17.7508283351  MEOH      949             0.0000000000
     24210      1642  MEOH      C1            -22.9405380572        8.6586756244       26.5528828591  MEOH      950             0.0000000000
     24211      1642  MEOH      DC1           -22.9449082611        8.6697671849       26.5675977056  MEOH      950             0.0000000000
     24212      1642  MEOH      O1            -22.4107335159        9.4217481933       27.6332519149  MEOH      950             0.0000000000
     24213      1642  MEOH      DO1           -22.3952257139        9.4233048134       27.6418008531  MEOH      950             0.0000000000
     24214      1642  MEOH      HO1           -21.8976209913       10.1295438760       27.2129653357  MEOH      950             0.0000000000
     24215      1642  MEOH      HO2           -23.1752652652        9.6464771363       28.1863234358  MEOH      950             0.0000000000
     24216      1642  MEOH      H1A           -23.5219989269        7.7935625459       26.9373352210  MEOH      950             0.0000000000
     24217      1642  MEOH      H1B           -22.1198774990        8.2563735171       25.9212260984  MEOH      950             0.0000000000
     24218      1642  MEOH      H1C           -23.5942192492        9.2899685024       25.9137496951  MEOH      950             0.0000000000
     24219      1642  MEOH      LP1A          -22.6361600051        9.6737501943       27.7236835990  MEOH      950             0.0000000000
     24220      1642  MEOH      LP1B          -22.1014273930        9.2909399768       27.7318365629  MEOH      950             0.0000000000
     24221      1643  MEOH      C1              5.7719966137      -16.9748455011       -6.1510780231  MEOH      951             0.0000000000
     24222      1643  MEOH      DC1             5.7739915156      -16.9916199043       -6.1377292179  MEOH      951             0.0000000000
     24223      1643  MEOH      O1              4.4772869590      -17.4071352477       -5.7398034367  MEOH      951             0.0000000000
     24224      1643  MEOH      DO1             4.4740490127      -17.4164991003       -5.7402535824  MEOH      951             0.0000000000
     24225      1643  MEOH      HO1             3.8536814489      -16.7646144022       -6.1128759920  MEOH      951             0.0000000000
     24226      1643  MEOH      HO2             4.4223114906      -18.3447551929       -5.9821802844  MEOH      951             0.0000000000
     24227      1643  MEOH      H1A             6.5556897440      -17.5848268155       -5.6530128922  MEOH      951             0.0000000000
     24228      1643  MEOH      H1B             5.9126559939      -15.9034095619       -5.8930839014  MEOH      951             0.0000000000
     24229      1643  MEOH      H1C             5.8731740574      -17.0851452201       -7.2519495411  MEOH      951             0.0000000000
     24230      1643  MEOH      LP1A            4.3454822450      -17.6306268116       -5.9747056253  MEOH      951             0.0000000000
     24231      1643  MEOH      LP1B            4.3963790423      -17.2651292444       -5.4303067419  MEOH      951             0.0000000000
     24232      1644  MEOH      C1            -24.7668933769      -16.1457168908       -1.4063948431  MEOH      952             0.0000000000
     24233      1644  MEOH      DC1           -24.7755331646      -16.1473836160       -1.4004132122  MEOH      952             0.0000000000
     24234      1644  MEOH      O1            -24.4439410761      -15.9507152686       -0.0289620732  MEOH      952             0.0000000000
     24235      1644  MEOH      DO1           -24.4462250309      -15.9466385272       -0.0294116809  MEOH      952             0.0000000000
     24236      1644  MEOH      HO1           -24.4866482320      -14.9988160810        0.1525979350  MEOH      952             0.0000000000
     24237      1644  MEOH      HO2           -24.9971315881      -16.5736885230        0.4678121027  MEOH      952             0.0000000000
     24238      1644  MEOH      H1A           -24.5896149823      -17.2057435804       -1.6878851457  MEOH      952             0.0000000000
     24239      1644  MEOH      H1B           -24.1205789979      -15.4968698013       -2.0353592133  MEOH      952             0.0000000000
     24240      1644  MEOH      H1C           -25.8302115462      -15.8907193468       -1.6029952585  MEOH      952             0.0000000000
     24241      1644  MEOH      LP1A          -24.7341351272      -15.9693069969        0.1658243748  MEOH      952             0.0000000000
     24242      1644  MEOH      LP1B          -24.0982472294      -15.9107602641        0.0084459733  MEOH      952             0.0000000000
     24243      1645  MEOH      C1             10.6846043816      -21.7298674024      -31.7137385613  MEOH      953             0.0000000000
     24244      1645  MEOH      DC1            10.6799246530      -21.7234685086      -31.7077220127  MEOH      953             0.0000000000
     24245      1645  MEOH      O1             10.5722755614      -22.6579124564      -32.7791041164  MEOH      953             0.0000000000
     24246      1645  MEOH      DO1            10.5562529099      -22.6612239242      -32.7686719844  MEOH      953             0.0000000000
     24247      1645  MEOH      HO1            11.0064305058      -23.4850436118      -32.5178312017  MEOH      953             0.0000000000
     24248      1645  MEOH      HO2             9.6600985562      -22.6198005769      -33.1067939044  MEOH      953             0.0000000000
     24249      1645  MEOH      H1A            10.4520093473      -20.7144648182      -32.0999744253  MEOH      953             0.0000000000
     24250      1645  MEOH      H1B            11.7259183540      -21.7419359110      -31.3266461150  MEOH      953             0.0000000000
     24251      1645  MEOH      H1C             9.9689723458      -21.9939513134      -30.9059938749  MEOH      953             0.0000000000
     24252      1645  MEOH      LP1A           10.2761977279      -22.8417762707      -32.7469791372  MEOH      953             0.0000000000
     24253      1645  MEOH      LP1B           10.8436473296      -22.6230191823      -32.9973696035  MEOH      953             0.0000000000
     24254      1646  MEOH      C1             19.9593341068      -18.1529213172      -36.7721812530  MEOH      954             0.0000000000
     24255      1646  MEOH      DC1            19.9704577906      -18.1584941533      -36.7719254796  MEOH      954             0.0000000000
     24256      1646  MEOH      O1             21.3329056002      -17.9401800813      -36.4609153344  MEOH      954             0.0000000000
     24257      1646  MEOH      DO1            21.3489304279      -17.9583132589      -36.4723244055  MEOH      954             0.0000000000
     24258      1646  MEOH      HO1            21.7238298102      -17.6028937207      -37.2820829021  MEOH      954             0.0000000000
     24259      1646  MEOH      HO2            21.3153395787      -17.3262944726      -35.7100918569  MEOH      954             0.0000000000
     24260      1646  MEOH      H1A            19.3581359960      -18.2829394317      -35.8469909356  MEOH      954             0.0000000000
     24261      1646  MEOH      H1B            19.8416303882      -19.0548755433      -37.4101039829  MEOH      954             0.0000000000
     24262      1646  MEOH      H1C            19.5842299613      -17.2619018924      -37.3196319491  MEOH      954             0.0000000000
     24263      1646  MEOH      LP1A           21.3785603012      -17.6165036888      -36.3358184070  MEOH      954             0.0000000000
     24264      1646  MEOH      LP1B           21.5162668072      -18.2317737893      -36.5229780221  MEOH      954             0.0000000000
     24265      1647  MEOH      C1             -7.6301640618      -16.4102089506      -17.5640417089  MEOH      955             0.0000000000
     24266      1647  MEOH      DC1            -7.6200822860      -16.4207372879      -17.5630491823  MEOH      955             0.0000000000
     24267      1647  MEOH      O1             -8.0966960239      -17.7555281734      -17.4344431762  MEOH      955             0.0000000000
     24268      1647  MEOH      DO1            -8.0876873163      -17.7634062734      -17.4177149919  MEOH      955             0.0000000000
     24269      1647  MEOH      HO1            -9.0425065740      -17.6818623942      -17.2321667394  MEOH      955             0.0000000000
     24270      1647  MEOH      HO2            -7.8556810240      -18.1875088045      -18.2688318771  MEOH      955             0.0000000000
     24271      1647  MEOH      H1A            -6.5907732151      -16.3973283188      -17.9562428781  MEOH      955             0.0000000000
     24272      1647  MEOH      H1B            -7.6481333418      -15.8973090366      -16.5786830002  MEOH      955             0.0000000000
     24273      1647  MEOH      H1C            -8.2762892675      -15.8571979710      -18.2788997896  MEOH      955             0.0000000000
     24274      1647  MEOH      LP1A           -8.1997402395      -17.8770394241      -17.7460790304  MEOH      955             0.0000000000
     24275      1647  MEOH      LP1B           -8.0611918735      -17.8631649612      -17.1033030590  MEOH      955             0.0000000000
     24276      1648  MEOH      C1             26.1374922094      -17.7177962811       13.2669707278  MEOH      956             0.0000000000
     24277      1648  MEOH      DC1            26.1285163260      -17.7108205928       13.2686224085  MEOH      956             0.0000000000
     24278      1648  MEOH      O1             25.5113599458      -16.4585641314       13.5128174122  MEOH      956             0.0000000000
     24279      1648  MEOH      DO1            25.5075496738      -16.4522599290       13.5149104886  MEOH      956             0.0000000000
     24280      1648  MEOH      HO1            25.7445443912      -15.8845864013       12.7664431229  MEOH      956             0.0000000000
     24281      1648  MEOH      HO2            24.5814805393      -16.6658324777       13.6952019604  MEOH      956             0.0000000000
     24282      1648  MEOH      H1A            26.0037671070      -18.3922950603       14.1396046681  MEOH      956             0.0000000000
     24283      1648  MEOH      H1B            27.2231677684      -17.5859559586       13.0714005058  MEOH      956             0.0000000000
     24284      1648  MEOH      H1C            25.6552986999      -18.1900699511       12.3844923990  MEOH      956             0.0000000000
     24285      1648  MEOH      LP1A           25.1889600909      -16.4565620345       13.3766031502  MEOH      956             0.0000000000
     24286      1648  MEOH      LP1B           25.7243882103      -16.2534791763       13.7000582189  MEOH      956             0.0000000000
     24287      1649  MEOH      C1            -34.6940781744        7.0751378969       15.8077980073  MEOH      957             0.0000000000
     24288      1649  MEOH      DC1           -34.7122563279        7.0665980999       15.8111476559  MEOH      957             0.0000000000
     24289      1649  MEOH      O1            -35.8154076186        7.9001885826       15.4810067382  MEOH      957             0.0000000000
     24290      1649  MEOH      DO1           -35.8318681693        7.8990230006       15.4837029842  MEOH      957             0.0000000000
     24291      1649  MEOH      HO1           -36.4088001190        7.8765725865       16.2479667288  MEOH      957             0.0000000000
     24292      1649  MEOH      HO2           -35.4338640032        8.7462671866       15.1990928058  MEOH      957             0.0000000000
     24293      1649  MEOH      H1A           -33.9769995294        7.0641634381       14.9592705887  MEOH      957             0.0000000000
     24294      1649  MEOH      H1B           -35.0308999885        6.0364851455       16.0129138966  MEOH      957             0.0000000000
     24295      1649  MEOH      H1C           -34.1733861320        7.4779056857       16.7027722557  MEOH      957             0.0000000000
     24296      1649  MEOH      LP1A          -35.7523554445        8.2310510598       15.5761615829  MEOH      957             0.0000000000
     24297      1649  MEOH      LP1B          -36.0615460138        7.7097194151       15.3208899475  MEOH      957             0.0000000000
     24298      1650  MEOH      C1            -30.2524491409       27.3789544417      -22.8745445554  MEOH      958             0.0000000000
     24299      1650  MEOH      DC1           -30.2555662768       27.3738942550      -22.8723343523  MEOH      958             0.0000000000
     24300      1650  MEOH      O1            -28.8705419802       27.0602195487      -23.0192335922  MEOH      958             0.0000000000
     24301      1650  MEOH      DO1           -28.8730711207       27.0530024125      -23.0167496801  MEOH      958             0.0000000000
     24302      1650  MEOH      HO1           -28.6792132604       26.9641950161      -23.9653163639  MEOH      958             0.0000000000
     24303      1650  MEOH      HO2           -28.3907496367       27.7355769914      -22.5146628522  MEOH      958             0.0000000000
     24304      1650  MEOH      H1A           -30.4853067850       27.4788306307      -21.7928222873  MEOH      958             0.0000000000
     24305      1650  MEOH      H1B           -30.8781152429       26.5725255599      -23.3133331006  MEOH      958             0.0000000000
     24306      1650  MEOH      H1C           -30.4755528675       28.3467032867      -23.3725484728  MEOH      958             0.0000000000
     24307      1650  MEOH      LP1A          -28.6818516333       27.3539891151      -23.0436343069  MEOH      958             0.0000000000
     24308      1650  MEOH      LP1B          -28.8258726649       26.7132724313      -23.0077292450  MEOH      958             0.0000000000
     24309      1651  MEOH      C1             -8.4115038910      -26.1100136345       15.9269241432  MEOH      959             0.0000000000
     24310      1651  MEOH      DC1            -8.3990444152      -26.1117263129       15.9182107290  MEOH      959             0.0000000000
     24311      1651  MEOH      O1             -7.0438279858      -26.2956429510       15.5564714428  MEOH      959             0.0000000000
     24312      1651  MEOH      DO1            -7.0360324397      -26.2957697223       15.5528994357  MEOH      959             0.0000000000
     24313      1651  MEOH      HO1            -7.0019187779      -27.0720342678       14.9765058042  MEOH      959             0.0000000000
     24314      1651  MEOH      HO2            -6.7227832520      -25.4307251588       15.2568925858  MEOH      959             0.0000000000
     24315      1651  MEOH      H1A            -8.4877176381      -25.3105738824       16.6946536199  MEOH      959             0.0000000000
     24316      1651  MEOH      H1B            -8.8251399983      -27.0495744935       16.3517200518  MEOH      959             0.0000000000
     24317      1651  MEOH      H1C            -9.0111469595      -25.8108676728       15.0407746728  MEOH      959             0.0000000000
     24318      1651  MEOH      LP1A           -6.9725504691      -26.1131963978       15.2664149469  MEOH      959             0.0000000000
     24319      1651  MEOH      LP1B           -6.8830371517      -26.5000245836       15.7907244170  MEOH      959             0.0000000000
     24320      1652  MEOH      C1             26.6786253035      -23.0512436812       11.3635117499  MEOH      960             0.0000000000
     24321      1652  MEOH      DC1            26.6770249347      -23.0271674945       11.3645535085  MEOH      960             0.0000000000
     24322      1652  MEOH      O1             26.8497067496      -24.4656745520       11.4173638467  MEOH      960             0.0000000000
     24323      1652  MEOH      DO1            26.8507794487      -24.4468543803       11.4268485454  MEOH      960             0.0000000000
     24324      1652  MEOH      HO1            26.2204563638      -24.8790216332       10.8057363927  MEOH      960             0.0000000000
     24325      1652  MEOH      HO2            27.8003683033      -24.6198964861       11.3017861397  MEOH      960             0.0000000000
     24326      1652  MEOH      H1A            27.3684359994      -22.5722625241       12.0908763452  MEOH      960             0.0000000000
     24327      1652  MEOH      H1B            25.6323094933      -22.7894229619       11.6299589982  MEOH      960             0.0000000000
     24328      1652  MEOH      H1C            26.9089317388      -22.6880287783       10.3391315070  MEOH      960             0.0000000000
     24329      1652  MEOH      LP1A           27.0910282227      -24.5660147855       11.1845639667  MEOH      960             0.0000000000
     24330      1652  MEOH      LP1B           26.6454439664      -24.6015422709       11.6669969342  MEOH      960             0.0000000000
     24331      1653  MEOH      C1            -13.9254663857       -3.1734301161      -10.5923260492  MEOH      961             0.0000000000
     24332      1653  MEOH      DC1           -13.9505731407       -3.1868400826      -10.5854489322  MEOH      961             0.0000000000
     24333      1653  MEOH      O1            -13.1512007416       -2.5785068356       -9.5455165613  MEOH      961             0.0000000000
     24334      1653  MEOH      DO1           -13.1784818503       -2.5968207642       -9.5275827834  MEOH      961             0.0000000000
     24335      1653  MEOH      HO1           -12.6566300791       -1.8435949280       -9.9407435187  MEOH      961             0.0000000000
     24336      1653  MEOH      HO2           -13.7368886967       -2.4722652619       -8.7796299187  MEOH      961             0.0000000000
     24337      1653  MEOH      H1A           -14.3003193029       -4.1683311613      -10.2698695364  MEOH      961             0.0000000000
     24338      1653  MEOH      H1B           -13.2885347877       -3.2948218956      -11.4944918743  MEOH      961             0.0000000000
     24339      1653  MEOH      H1C           -14.7785681265       -2.5174736637      -10.8684773708  MEOH      961             0.0000000000
     24340      1653  MEOH      LP1A          -13.3373321942       -2.3285643169       -9.3861935568  MEOH      961             0.0000000000
     24341      1653  MEOH      LP1B          -12.8397976132       -2.7365868010       -9.5223041479  MEOH      961             0.0000000000
     24342      1654  MEOH      C1             28.7989977505       30.5671795204       21.8739539592  MEOH      962             0.0000000000
     24343      1654  MEOH      DC1            28.7967604058       30.5478972049       21.8644064451  MEOH      962             0.0000000000
     24344      1654  MEOH      O1             29.8723732395       31.2367317161       22.5368390632  MEOH      962             0.0000000000
     24345      1654  MEOH      DO1            29.8724952901       31.2179541602       22.5349403754  MEOH      962             0.0000000000
     24346      1654  MEOH      HO1            30.6107900899       31.3311197600       21.9149617022  MEOH      962             0.0000000000
     24347      1654  MEOH      HO2            29.4775035022       32.0527518578       22.8819318335  MEOH      962             0.0000000000
     24348      1654  MEOH      H1A            27.9144427993       30.5561112992       22.5460856676  MEOH      962             0.0000000000
     24349      1654  MEOH      H1B            29.0745491862       29.5219268626       21.6173622842  MEOH      962             0.0000000000
     24350      1654  MEOH      H1C            28.5282699933       31.1177536702       20.9477274274  MEOH      962             0.0000000000
     24351      1654  MEOH      LP1A           29.8391810065       31.5830596824       22.4986917772  MEOH      962             0.0000000000
     24352      1654  MEOH      LP1B           30.0791859360       31.0032801284       22.6956750312  MEOH      962             0.0000000000
     24353      1655  MEOH      C1              4.2939748834       35.6100345118      -14.8731467876  MEOH      963             0.0000000000
     24354      1655  MEOH      DC1             4.3098144674       35.6371316662      -14.8688364284  MEOH      963             0.0000000000
     24355      1655  MEOH      O1              5.0922733072       36.6767698169      -14.3444316322  MEOH      963             0.0000000000
     24356      1655  MEOH      DO1             5.1021682138       36.7056901636      -14.3453351620  MEOH      963             0.0000000000
     24357      1655  MEOH      HO1             5.3408041937       36.3766260906      -13.4561489395  MEOH      963             0.0000000000
     24358      1655  MEOH      HO2             5.7784193353       36.8425021606      -15.0097408987  MEOH      963             0.0000000000
     24359      1655  MEOH      H1A             3.9127170552       35.8690225020      -15.8840318899  MEOH      963             0.0000000000
     24360      1655  MEOH      H1B             3.4279633365       35.4108805415      -14.2063014557  MEOH      963             0.0000000000
     24361      1655  MEOH      H1C             4.8968425174       34.6801139847      -14.9513735774  MEOH      963             0.0000000000
     24362      1655  MEOH      LP1A            5.4284733176       36.6276725831      -14.4284495745  MEOH      963             0.0000000000
     24363      1655  MEOH      LP1B            4.8880199460       36.9099106644      -14.1818711521  MEOH      963             0.0000000000
     24364      1656  MEOH      C1             20.4491909074        3.4698426634       23.0531935894  MEOH      964             0.0000000000
     24365      1656  MEOH      DC1            20.4401238813        3.4679846335       23.0560532995  MEOH      964             0.0000000000
     24366      1656  MEOH      O1             20.7212186017        2.1033303501       22.7511730827  MEOH      964             0.0000000000
     24367      1656  MEOH      DO1            20.6983746219        2.1092466771       22.7494801285  MEOH      964             0.0000000000
     24368      1656  MEOH      HO1            20.9269447723        2.0262490760       21.8063793380  MEOH      964             0.0000000000
     24369      1656  MEOH      HO2            21.4013220429        1.8272646675       23.3853237347  MEOH      964             0.0000000000
     24370      1656  MEOH      H1A            20.2963070522        3.5768704229       24.1484070790  MEOH      964             0.0000000000
     24371      1656  MEOH      H1B            19.5353648322        3.8163999329       22.5248556632  MEOH      964             0.0000000000
     24372      1656  MEOH      H1C            21.3081036029        4.0998973024       22.7375654327  MEOH      964             0.0000000000
     24373      1656  MEOH      LP1A           21.0616857531        2.0361596415       22.7966726949  MEOH      964             0.0000000000
     24374      1656  MEOH      LP1B           20.4246077797        1.9382322713       22.6659401980  MEOH      964             0.0000000000
     24375      1657  MEOH      C1            -11.3810674216       17.7201559470       17.0217953213  MEOH      965             0.0000000000
     24376      1657  MEOH      DC1           -11.3742256579       17.7316679164       17.0341671791  MEOH      965             0.0000000000
     24377      1657  MEOH      O1            -12.2878248702       16.6959039998       16.6145093406  MEOH      965             0.0000000000
     24378      1657  MEOH      DO1           -12.2814954750       16.7089008667       16.6195559674  MEOH      965             0.0000000000
     24379      1657  MEOH      HO1           -12.7031788131       16.9573029864       15.7778184338  MEOH      965             0.0000000000
     24380      1657  MEOH      HO2           -11.7872321205       15.8664214312       16.6621073167  MEOH      965             0.0000000000
     24381      1657  MEOH      H1A           -10.9544256045       17.4539309759       18.0124627859  MEOH      965             0.0000000000
     24382      1657  MEOH      H1B           -11.9238140682       18.6864957587       17.0988306762  MEOH      965             0.0000000000
     24383      1657  MEOH      H1C           -10.5495079359       17.8139238986       16.2910166992  MEOH      965             0.0000000000
     24384      1657  MEOH      LP1A          -12.1205726233       16.4589042927       16.4186578032  MEOH      965             0.0000000000
     24385      1657  MEOH      LP1B          -12.6044829475       16.7549964642       16.7513879099  MEOH      965             0.0000000000
     24386      1658  MEOH      C1            -30.1459980806       23.2525234238      -28.5791965264  MEOH      966             0.0000000000
     24387      1658  MEOH      DC1           -30.1237974705       23.2429343265      -28.5833356164  MEOH      966             0.0000000000
     24388      1658  MEOH      O1            -28.7502542168       23.2952684412      -28.2687813922  MEOH      966             0.0000000000
     24389      1658  MEOH      DO1           -28.7310716736       23.2882097391      -28.2764359609  MEOH      966             0.0000000000
     24390      1658  MEOH      HO1           -28.5720430693       22.5393730910      -27.6876075744  MEOH      966             0.0000000000
     24391      1658  MEOH      HO2           -28.2856586474       23.4171999429      -29.1115053489  MEOH      966             0.0000000000
     24392      1658  MEOH      H1A           -30.4398726404       24.2046229769      -29.0705875986  MEOH      966             0.0000000000
     24393      1658  MEOH      H1B           -30.7496003158       23.1421755751      -27.6530169032  MEOH      966             0.0000000000
     24394      1658  MEOH      H1C           -30.3733437489       22.4069181757      -29.2629996498  MEOH      966             0.0000000000
     24395      1658  MEOH      LP1A          -28.5687074671       23.1166265550      -28.5088394147  MEOH      966             0.0000000000
     24396      1658  MEOH      LP1B          -28.6970592557       23.4905027044      -27.9832049951  MEOH      966             0.0000000000
     24397      1659  MEOH      C1            -25.9812980137       24.9013880076       -6.4500683615  MEOH      967             0.0000000000
     24398      1659  MEOH      DC1           -25.9899620220       24.9052332621       -6.4531019527  MEOH      967             0.0000000000
     24399      1659  MEOH      O1            -26.0520454288       26.2161629045       -7.0016834855  MEOH      967             0.0000000000
     24400      1659  MEOH      DO1           -26.0626594060       26.2212235748       -6.9971930719  MEOH      967             0.0000000000
     24401      1659  MEOH      HO1           -26.4993828511       26.1644194339       -7.8608178428  MEOH      967             0.0000000000
     24402      1659  MEOH      HO2           -26.3437764176       26.8066362076       -6.2895498535  MEOH      967             0.0000000000
     24403      1659  MEOH      H1A           -25.2701415991       24.8867262808       -5.5966267475  MEOH      967             0.0000000000
     24404      1659  MEOH      H1B           -25.6321781630       24.1798185854       -7.2193367795  MEOH      967             0.0000000000
     24405      1659  MEOH      H1C           -26.9863290504       24.5976067267       -6.0868183785  MEOH      967             0.0000000000
     24406      1659  MEOH      LP1A          -26.3451582334       26.3750459939       -6.8951891303  MEOH      967             0.0000000000
     24407      1659  MEOH      LP1B          -25.7654069774       26.2819459700       -7.1914490947  MEOH      967             0.0000000000
     24408      1660  MEOH      C1            -17.8982705816      -13.0950732777       35.1492784377  MEOH      968             0.0000000000
     24409      1660  MEOH      DC1           -17.8931804764      -13.0992557415       35.1498187120  MEOH      968             0.0000000000
     24410      1660  MEOH      O1            -16.5336344492      -12.7255182174       35.0019331444  MEOH      968             0.0000000000
     24411      1660  MEOH      DO1           -16.5260664431      -12.7305989229       35.0062558586  MEOH      968             0.0000000000
     24412      1660  MEOH      HO1           -16.0656607808      -13.5039194734       34.6613569704  MEOH      968             0.0000000000
     24413      1660  MEOH      HO2           -16.5435566717      -11.9000062206       34.4926871397  MEOH      968             0.0000000000
     24414      1660  MEOH      H1A           -18.4223071558      -12.3592239672       35.7959873845  MEOH      968             0.0000000000
     24415      1660  MEOH      H1B           -17.9319589302      -14.1008282679       35.6200681940  MEOH      968             0.0000000000
     24416      1660  MEOH      H1C           -18.4074926719      -13.1571187174       34.1638017873  MEOH      968             0.0000000000
     24417      1660  MEOH      LP1A          -16.4798964169      -12.5904603720       34.6835440707  MEOH      968             0.0000000000
     24418      1660  MEOH      LP1B          -16.3599646644      -12.7877955611       35.2993559719  MEOH      968             0.0000000000
     24419      1661  MEOH      C1              2.0097725330       11.6831464818      -11.8045651947  MEOH      969             0.0000000000
     24420      1661  MEOH      DC1             2.0172990590       11.6734186852      -11.8118498089  MEOH      969             0.0000000000
     24421      1661  MEOH      O1              2.4321679802       10.3617979728      -12.1394743667  MEOH      969             0.0000000000
     24422      1661  MEOH      DO1             2.4473822925       10.3593706962      -12.1502635647  MEOH      969             0.0000000000
     24423      1661  MEOH      HO1             2.9724052485       10.0518974258      -11.3958310753  MEOH      969             0.0000000000
     24424      1661  MEOH      HO2             1.6103096034        9.8868827704      -12.3392351235  MEOH      969             0.0000000000
     24425      1661  MEOH      H1A             1.3142057778       12.0606844853      -12.5842913938  MEOH      969             0.0000000000
     24426      1661  MEOH      H1B             2.8861603017       12.3632780129      -11.7438479859  MEOH      969             0.0000000000
     24427      1661  MEOH      H1C             1.4756396774       11.6888054722      -10.8304034678  MEOH      969             0.0000000000
     24428      1661  MEOH      LP1A            2.1958685088       10.1287867418      -12.0282613907  MEOH      969             0.0000000000
     24429      1661  MEOH      LP1B            2.7336631754       10.3738445511      -12.3168314281  MEOH      969             0.0000000000
     24430      1662  MEOH      C1             13.6003982607      -23.8956880013       30.9625966661  MEOH      970             0.0000000000
     24431      1662  MEOH      DC1            13.6116219045      -23.9035643890       30.9685586183  MEOH      970             0.0000000000
     24432      1662  MEOH      O1             14.7915222374      -24.4291967797       31.5436244168  MEOH      970             0.0000000000
     24433      1662  MEOH      DO1            14.8008162222      -24.4338680247       31.5467028322  MEOH      970             0.0000000000
     24434      1662  MEOH      HO1            15.1821866131      -23.7153727644       32.0715795497  MEOH      970             0.0000000000
     24435      1662  MEOH      HO2            14.5308481288      -25.2605504694       31.9700045895  MEOH      970             0.0000000000
     24436      1662  MEOH      H1A            13.1476597311      -24.6439727169       30.2774552131  MEOH      970             0.0000000000
     24437      1662  MEOH      H1B            13.8355195789      -22.9757195964       30.3857976539  MEOH      970             0.0000000000
     24438      1662  MEOH      H1C            12.8664202117      -23.6479865461       31.7589892908  MEOH      970             0.0000000000
     24439      1662  MEOH      LP1A           14.7180586953      -24.5783422616       31.8516158667  MEOH      970             0.0000000000
     24440      1662  MEOH      LP1B           15.0625944173      -24.3795260122       31.3278636972  MEOH      970             0.0000000000
     24441      1663  MEOH      C1             30.2177123279       -9.6084497866       -6.8772449542  MEOH      971             0.0000000000
     24442      1663  MEOH      DC1            30.2197280056       -9.6149255601       -6.8861043870  MEOH      971             0.0000000000
     24443      1663  MEOH      O1             30.0005140236      -10.7177984787       -6.0051040817  MEOH      971             0.0000000000
     24444      1663  MEOH      DO1            29.9984456671      -10.7239914681       -6.0183347373  MEOH      971             0.0000000000
     24445      1663  MEOH      HO1            30.3611210190      -11.5186502395       -6.4168067089  MEOH      971             0.0000000000
     24446      1663  MEOH      HO2            30.3348101475      -10.4341846841       -5.1398241750  MEOH      971             0.0000000000
     24447      1663  MEOH      H1A            29.7670087980       -8.6982543568       -6.4269876839  MEOH      971             0.0000000000
     24448      1663  MEOH      H1B            29.7387652691       -9.7943886609       -7.8623121857  MEOH      971             0.0000000000
     24449      1663  MEOH      H1C            31.3066845296       -9.4362048762       -7.0143297261  MEOH      971             0.0000000000
     24450      1663  MEOH      LP1A           30.2698546285      -10.7508080701       -5.7840475156  MEOH      971             0.0000000000
     24451      1663  MEOH      LP1B           29.6896367093      -10.8638598577       -6.0723452079  MEOH      971             0.0000000000
     24452      1664  MEOH      C1             27.8518931767       32.4853277857        3.4375041184  MEOH      972             0.0000000000
     24453      1664  MEOH      DC1            27.8444302164       32.4738948364        3.4438194021  MEOH      972             0.0000000000
     24454      1664  MEOH      O1             27.1851836159       31.2571629496        3.1391399612  MEOH      972             0.0000000000
     24455      1664  MEOH      DO1            27.1886365232       31.2439743316        3.1439808690  MEOH      972             0.0000000000
     24456      1664  MEOH      HO1            27.1806775331       30.7227640362        3.9486444383  MEOH      972             0.0000000000
     24457      1664  MEOH      HO2            26.3419346385       31.5109351529        2.7324080706  MEOH      972             0.0000000000
     24458      1664  MEOH      H1A            27.9517736797       33.0869124270        2.5088272074  MEOH      972             0.0000000000
     24459      1664  MEOH      H1B            28.8669488259       32.2906522922        3.8450387565  MEOH      972             0.0000000000
     24460      1664  MEOH      H1C            27.2556511393       33.0743157523        4.1668254535  MEOH      972             0.0000000000
     24461      1664  MEOH      LP1A           26.8414638956       31.2906562689        3.1960165948  MEOH      972             0.0000000000
     24462      1664  MEOH      LP1B           27.4155621960       31.0214107431        3.0214683546  MEOH      972             0.0000000000
     24463      1665  MEOH      C1            -12.7207968551      -18.2821449460       30.5353188243  MEOH      973             0.0000000000
     24464      1665  MEOH      DC1           -12.7127499652      -18.2828229554       30.5344112800  MEOH      973             0.0000000000
     24465      1665  MEOH      O1            -11.9869546579      -17.2086127562       29.9446379104  MEOH      973             0.0000000000
     24466      1665  MEOH      DO1           -11.9854881273      -17.2108039262       29.9408572422  MEOH      973             0.0000000000
     24467      1665  MEOH      HO1           -11.5417428180      -17.5411803172       29.1496000276  MEOH      973             0.0000000000
     24468      1665  MEOH      HO2           -12.5961443220      -16.4550065977       29.9014440213  MEOH      973             0.0000000000
     24469      1665  MEOH      H1A           -13.1452236353      -17.9632388074       31.5112705561  MEOH      973             0.0000000000
     24470      1665  MEOH      H1B           -12.0575363485      -19.1562985480       30.7092785402  MEOH      973             0.0000000000
     24471      1665  MEOH      H1C           -13.5594762328      -18.5700683893       29.8659624222  MEOH      973             0.0000000000
     24472      1665  MEOH      LP1A          -12.1900175949      -17.0349156818       29.7185963878  MEOH      973             0.0000000000
     24473      1665  MEOH      LP1B          -11.6644632073      -17.1953211383       30.0799988989  MEOH      973             0.0000000000
     24474      1666  MEOH      C1             -2.6228089463        4.0005131002        2.1208602200  MEOH      974             0.0000000000
     24475      1666  MEOH      DC1            -2.6176687014        4.0079717735        2.1313186615  MEOH      974             0.0000000000
     24476      1666  MEOH      O1             -3.5450990958        3.0690190502        1.5734740545  MEOH      974             0.0000000000
     24477      1666  MEOH      DO1            -3.5318006590        3.0714514852        1.5850387118  MEOH      974             0.0000000000
     24478      1666  MEOH      HO1            -3.7818858723        2.4073173024        2.2420417922  MEOH      974             0.0000000000
     24479      1666  MEOH      HO2            -4.2350045424        3.5924130296        1.1364509235  MEOH      974             0.0000000000
     24480      1666  MEOH      H1A            -2.2996767471        4.6908108718        1.3125313456  MEOH      974             0.0000000000
     24481      1666  MEOH      H1B            -1.7306413953        3.4733617398        2.5214466704  MEOH      974             0.0000000000
     24482      1666  MEOH      H1C            -3.1199033483        4.5802679324        2.9277694415  MEOH      974             0.0000000000
     24483      1666  MEOH      LP1A           -3.8726539637        3.1827105043        1.6212449843  MEOH      974             0.0000000000
     24484      1666  MEOH      LP1B           -3.3727011648        2.8039404222        1.4234331455  MEOH      974             0.0000000000
     24485      1667  MEOH      C1             25.5196313442       14.8043557638        2.1400189283  MEOH      975             0.0000000000
     24486      1667  MEOH      DC1            25.5172987927       14.7989619327        2.1335807950  MEOH      975             0.0000000000
     24487      1667  MEOH      O1             25.1229278773       13.4544552336        1.9277213791  MEOH      975             0.0000000000
     24488      1667  MEOH      DO1            25.1209668718       13.4533228030        1.9312737750  MEOH      975             0.0000000000
     24489      1667  MEOH      HO1            24.1548708132       13.4571752375        1.8664178539  MEOH      975             0.0000000000
     24490      1667  MEOH      HO2            25.6508478285       13.1520772705        1.1722294242  MEOH      975             0.0000000000
     24491      1667  MEOH      H1A            26.6204477121       14.8711649270        2.2744096298  MEOH      975             0.0000000000
     24492      1667  MEOH      H1B            25.0235507537       15.2113169126        3.0469961448  MEOH      975             0.0000000000
     24493      1667  MEOH      H1C            25.2342840784       15.4183041617        1.2591299998  MEOH      975             0.0000000000
     24494      1667  MEOH      LP1A           25.1157673487       13.3842931234        1.5849007188  MEOH      975             0.0000000000
     24495      1667  MEOH      LP1B           25.0743414524       13.2942158329        2.2350692175  MEOH      975             0.0000000000
     24496      1668  MEOH      C1             -7.3008335048      -10.0548578550       -9.9306034374  MEOH      976             0.0000000000
     24497      1668  MEOH      DC1            -7.2882097609      -10.0613584692       -9.9314515466  MEOH      976             0.0000000000
     24498      1668  MEOH      O1             -8.2224086716       -9.3028572635       -9.1358669640  MEOH      976             0.0000000000
     24499      1668  MEOH      DO1            -8.2033113125       -9.3093339346       -9.1139261906  MEOH      976             0.0000000000
     24500      1668  MEOH      HO1            -8.4329249729       -8.4956880671       -9.6309031002  MEOH      976             0.0000000000
     24501      1668  MEOH      HO2            -8.9601227459       -9.9139592273       -8.9834453960  MEOH      976             0.0000000000
     24502      1668  MEOH      H1A            -7.2713107492      -11.1065384008       -9.5736476468  MEOH      976             0.0000000000
     24503      1668  MEOH      H1B            -6.2838223633       -9.6143049577       -9.8536457589  MEOH      976             0.0000000000
     24504      1668  MEOH      H1C            -7.6270206359      -10.0478407973      -10.9926174284  MEOH      976             0.0000000000
     24505      1668  MEOH      LP1A           -8.5506892689       -9.3985818050       -9.2104904292  MEOH      976             0.0000000000
     24506      1668  MEOH      LP1B           -8.0480295239       -9.0894167488       -8.9201471005  MEOH      976             0.0000000000
     24507      1669  MEOH      C1             -8.6967945773      -22.9168640279       -9.2602482749  MEOH      977             0.0000000000
     24508      1669  MEOH      DC1            -8.6838390277      -22.9191163171       -9.2504891382  MEOH      977             0.0000000000
     24509      1669  MEOH      O1             -7.3282174222      -22.5144418267       -9.3042485602  MEOH      977             0.0000000000
     24510      1669  MEOH      DO1            -7.3182229441      -22.5143430850       -9.2981995726  MEOH      977             0.0000000000
     24511      1669  MEOH      HO1            -7.0675691815      -22.5915384947      -10.2353868955  MEOH      977             0.0000000000
     24512      1669  MEOH      HO2            -7.2988621213      -21.6479841437       -8.8691746010  MEOH      977             0.0000000000
     24513      1669  MEOH      H1A            -9.0625470919      -22.8828584770       -8.2117304060  MEOH      977             0.0000000000
     24514      1669  MEOH      H1B            -8.8074691746      -23.9533841926       -9.6445633560  MEOH      977             0.0000000000
     24515      1669  MEOH      H1C            -9.3135645350      -22.2311916871       -9.8797394067  MEOH      977             0.0000000000
     24516      1669  MEOH      LP1A           -7.3066546441      -22.1686824569       -9.3541033978  MEOH      977             0.0000000000
     24517      1669  MEOH      LP1B           -7.1203745612      -22.7908589146       -9.2504439263  MEOH      977             0.0000000000
     24518      1670  MEOH      C1            -19.1152247921        4.6351595237      -26.8177768270  MEOH      978             0.0000000000
     24519      1670  MEOH      DC1           -19.1265336658        4.6471503431      -26.8040801047  MEOH      978             0.0000000000
     24520      1670  MEOH      O1            -19.4437081041        3.2841465880      -27.1451949740  MEOH      978             0.0000000000
     24521      1670  MEOH      DO1           -19.4545245776        3.2909230527      -27.1302394012  MEOH      978             0.0000000000
     24522      1670  MEOH      HO1           -18.8187747181        2.9996267072      -27.8303275901  MEOH      978             0.0000000000
     24523      1670  MEOH      HO2           -19.4920425009        2.8112604651      -26.2996522484  MEOH      978             0.0000000000
     24524      1670  MEOH      H1A           -19.8689132066        5.0425476563      -26.1104510993  MEOH      978             0.0000000000
     24525      1670  MEOH      H1B           -19.0976937289        5.2550672272      -27.7395838036  MEOH      978             0.0000000000
     24526      1670  MEOH      H1C           -18.1167094230        4.6664462567      -26.3316603822  MEOH      978             0.0000000000
     24527      1670  MEOH      LP1A          -19.2689806440        3.0644379530      -26.9361532787  MEOH      978             0.0000000000
     24528      1670  MEOH      LP1B          -19.6820270275        3.2776277791      -27.4014401610  MEOH      978             0.0000000000
     24529      1671  MEOH      C1             31.1906062953       25.0894143206      -20.0043597238  MEOH      979             0.0000000000
     24530      1671  MEOH      DC1            31.1852523706       25.0858486419      -19.9927762479  MEOH      979             0.0000000000
     24531      1671  MEOH      O1             31.2271946011       26.1511207753      -19.0498408642  MEOH      979             0.0000000000
     24532      1671  MEOH      DO1            31.2230063774       26.1524920534      -19.0438270468  MEOH      979             0.0000000000
     24533      1671  MEOH      HO1            31.4361262841       26.9562734702      -19.5488165051  MEOH      979             0.0000000000
     24534      1671  MEOH      HO2            30.3954730738       26.0900233583      -18.5544557547  MEOH      979             0.0000000000
     24535      1671  MEOH      H1A            31.0181841995       24.1260774559      -19.4784569684  MEOH      979             0.0000000000
     24536      1671  MEOH      H1B            32.1536826501       25.0335454084      -20.5554346734  MEOH      979             0.0000000000
     24537      1671  MEOH      H1C            30.3746765245       25.2673966627      -20.7370956211  MEOH      979             0.0000000000
     24538      1671  MEOH      LP1A           30.9081096194       26.2901955246      -19.0131940552  MEOH      979             0.0000000000
     24539      1671  MEOH      LP1B           31.5499237385       26.1825825035      -18.9180984508  MEOH      979             0.0000000000
     24540      1672  MEOH      C1            -23.0000029416       14.0676401859       34.4632113532  MEOH      980             0.0000000000
     24541      1672  MEOH      DC1           -23.0010911729       14.0825119231       34.4631622418  MEOH      980             0.0000000000
     24542      1672  MEOH      O1            -21.9827753440       14.9540221935       34.9376318917  MEOH      980             0.0000000000
     24543      1672  MEOH      DO1           -21.9822804529       14.9708163337       34.9328904099  MEOH      980             0.0000000000
     24544      1672  MEOH      HO1           -21.2528528521       14.9079376310       34.3004589411  MEOH      980             0.0000000000
     24545      1672  MEOH      HO2           -22.4227884481       15.7891169176       35.1610267687  MEOH      980             0.0000000000
     24546      1672  MEOH      H1A           -23.7693643145       13.9207293505       35.2511334844  MEOH      980             0.0000000000
     24547      1672  MEOH      H1B           -22.5585029698       13.0788727822       34.2147404369  MEOH      980             0.0000000000
     24548      1672  MEOH      H1C           -23.4814394303       14.4901618141       33.5554584228  MEOH      980             0.0000000000
     24549      1672  MEOH      LP1A          -22.0352968123       15.2757037139       34.8101074045  MEOH      980             0.0000000000
     24550      1672  MEOH      LP1B          -21.7665382233       14.7834273174       35.1535922952  MEOH      980             0.0000000000
     24551      1673  MEOH      C1            -17.0068620963       34.1949269957       -8.1859488705  MEOH      981             0.0000000000
     24552      1673  MEOH      DC1           -17.0079233444       34.2148024932       -8.1747446100  MEOH      981             0.0000000000
     24553      1673  MEOH      O1            -16.3646356934       33.0264663202       -7.6771525115  MEOH      981             0.0000000000
     24554      1673  MEOH      DO1           -16.3661642643       33.0457055333       -7.6625790920  MEOH      981             0.0000000000
     24555      1673  MEOH      HO1           -16.3742621307       32.3600399189       -8.3819100476  MEOH      981             0.0000000000
     24556      1673  MEOH      HO2           -15.5100564207       33.3293982444       -7.3324402896  MEOH      981             0.0000000000
     24557      1673  MEOH      H1A           -17.0790000257       34.9648337026       -7.3882266244  MEOH      981             0.0000000000
     24558      1673  MEOH      H1B           -18.0222972157       33.9484745593       -8.5634057781  MEOH      981             0.0000000000
     24559      1673  MEOH      H1C           -16.3950106946       34.6089600010       -9.0157292833  MEOH      981             0.0000000000
     24560      1673  MEOH      LP1A          -16.0204858687       33.0425702508       -7.7388093166  MEOH      981             0.0000000000
     24561      1673  MEOH      LP1B          -16.5993060219       32.8196589523       -7.5201157341  MEOH      981             0.0000000000
     24562      1674  MEOH      C1             -9.1285683631        1.1204675607       13.6986649836  MEOH      982             0.0000000000
     24563      1674  MEOH      DC1            -9.0951613904        1.1160962690       13.6926222101  MEOH      982             0.0000000000
     24564      1674  MEOH      O1            -10.0268917484        1.7836259344       14.5595922980  MEOH      982             0.0000000000
     24565      1674  MEOH      DO1            -9.9918775141        1.7960265932       14.5474803896  MEOH      982             0.0000000000
     24566      1674  MEOH      HO1           -10.7328951237        2.1665895208       14.0157190350  MEOH      982             0.0000000000
     24567      1674  MEOH      HO2           -10.3027432161        1.1025777022       15.1928215402  MEOH      982             0.0000000000
     24568      1674  MEOH      H1A            -8.4673854041        0.4839359957       14.3247525670  MEOH      982             0.0000000000
     24569      1674  MEOH      H1B            -8.5338219246        1.8934235055       13.1665589967  MEOH      982             0.0000000000
     24570      1674  MEOH      H1C            -9.6787586143        0.4856222576       12.9716277560  MEOH      982             0.0000000000
     24571      1674  MEOH      LP1A          -10.2743737901        1.5614174740       14.6685695394  MEOH      982             0.0000000000
     24572      1674  MEOH      LP1B           -9.9255281385        2.1154205090       14.6058284182  MEOH      982             0.0000000000
     24573      1675  MEOH      C1            -28.5877175085       22.7773811784       -8.4118985328  MEOH      983             0.0000000000
     24574      1675  MEOH      DC1           -28.5787385299       22.7762654026       -8.4096458057  MEOH      983             0.0000000000
     24575      1675  MEOH      O1            -27.5941172010       21.8470891294       -8.8428888100  MEOH      983             0.0000000000
     24576      1675  MEOH      DO1           -27.5903271212       21.8406057119       -8.8387279581  MEOH      983             0.0000000000
     24577      1675  MEOH      HO1           -27.2061142563       21.4516291545       -8.0466695409  MEOH      983             0.0000000000
     24578      1675  MEOH      HO2           -28.0278631726       21.2881819158       -9.5065055358  MEOH      983             0.0000000000
     24579      1675  MEOH      H1A           -28.9859250809       23.3360788633       -9.2857455607  MEOH      983             0.0000000000
     24580      1675  MEOH      H1B           -28.1555649498       23.4995278924       -7.6865921903  MEOH      983             0.0000000000
     24581      1675  MEOH      H1C           -29.4281765660       22.2451372113       -7.9172613606  MEOH      983             0.0000000000
     24582      1675  MEOH      LP1A          -27.7384933389       21.5321290784       -8.8924438006  MEOH      983             0.0000000000
     24583      1675  MEOH      LP1B          -27.2854565325       22.0086309411       -8.8765464213  MEOH      983             0.0000000000
     24584      1676  MEOH      C1             23.8820064577       -4.2470145788        0.6021453600  MEOH      984             0.0000000000
     24585      1676  MEOH      DC1            23.8625893435       -4.2581572450        0.6091675088  MEOH      984             0.0000000000
     24586      1676  MEOH      O1             23.3722869939       -3.8347549792       -0.6686642008  MEOH      984             0.0000000000
     24587      1676  MEOH      DO1            23.3541905058       -3.8391931679       -0.6610213537  MEOH      984             0.0000000000
     24588      1676  MEOH      HO1            24.1276858530       -3.8404187424       -1.2771380995  MEOH      984             0.0000000000
     24589      1676  MEOH      HO2            22.5906277686       -4.3822542905       -0.8423114315  MEOH      984             0.0000000000
     24590      1676  MEOH      H1A            23.0901178029       -4.1609855985        1.3766338192  MEOH      984             0.0000000000
     24591      1676  MEOH      H1B            24.7330702973       -3.5955378456        0.8947020333  MEOH      984             0.0000000000
     24592      1676  MEOH      H1C            24.2342369028       -5.2990507068        0.5431987713  MEOH      984             0.0000000000
     24593      1676  MEOH      LP1A           23.2606769660       -4.1132267312       -0.8489325702  MEOH      984             0.0000000000
     24594      1676  MEOH      LP1B           23.3880621648       -3.4862304252       -0.6966245165  MEOH      984             0.0000000000
     24595      1677  MEOH      C1             14.0136151435      -36.2410743822       -4.0462298740  MEOH      985             0.0000000000
     24596      1677  MEOH      DC1            14.0221672058      -36.2415024648       -4.0576611652  MEOH      985             0.0000000000
     24597      1677  MEOH      O1             13.3900577499      -37.2994430830       -4.7696192859  MEOH      985             0.0000000000
     24598      1677  MEOH      DO1            13.4054367737      -37.2988332461       -4.7900372920  MEOH      985             0.0000000000
     24599      1677  MEOH      HO1            12.4334754564      -37.1518900925       -4.7057566928  MEOH      985             0.0000000000
     24600      1677  MEOH      HO2            13.8769204875      -37.3973467503       -5.6028536751  MEOH      985             0.0000000000
     24601      1677  MEOH      H1A            15.0239688424      -36.5583293044       -3.7102898236  MEOH      985             0.0000000000
     24602      1677  MEOH      H1B            13.4060834237      -35.9774434132       -3.1541957252  MEOH      985             0.0000000000
     24603      1677  MEOH      H1C            14.1078825220      -35.3493200911       -4.7021330271  MEOH      985             0.0000000000
     24604      1677  MEOH      LP1A           13.3525684545      -37.2089343714       -5.1056292944  MEOH      985             0.0000000000
     24605      1677  MEOH      LP1B           13.3331433003      -37.5720527663       -4.5576176207  MEOH      985             0.0000000000
     24606      1678  MEOH      C1            -30.3631070019       29.9592289722       12.5158196620  MEOH      986             0.0000000000
     24607      1678  MEOH      DC1           -30.3633370608       29.9686444123       12.5113111738  MEOH      986             0.0000000000
     24608      1678  MEOH      O1            -29.0619235559       29.7024359911       11.9750343913  MEOH      986             0.0000000000
     24609      1678  MEOH      DO1           -29.0573519166       29.7168861378       11.9585592283  MEOH      986             0.0000000000
     24610      1678  MEOH      HO1           -28.9427335611       28.7410400945       12.0241432000  MEOH      986             0.0000000000
     24611      1678  MEOH      HO2           -29.0190111150       30.1716841508       11.1271755069  MEOH      986             0.0000000000
     24612      1678  MEOH      H1A           -30.5188957562       31.0489418911       12.6660748474  MEOH      986             0.0000000000
     24613      1678  MEOH      H1B           -30.4774092699       29.4625804530       13.5030360723  MEOH      986             0.0000000000
     24614      1678  MEOH      H1C           -31.1346429963       29.5546983323       11.8263211698  MEOH      986             0.0000000000
     24615      1678  MEOH      LP1A          -29.0833564016       29.6550394571       11.6289214015  MEOH      986             0.0000000000
     24616      1678  MEOH      LP1B          -28.8215306869       29.7181485768       12.2289327631  MEOH      986             0.0000000000
     24617      1679  MEOH      C1              3.4839946855        0.4299660795      -12.4726115476  MEOH      987             0.0000000000
     24618      1679  MEOH      DC1             3.4814479213        0.4138079231      -12.4777389402  MEOH      987             0.0000000000
     24619      1679  MEOH      O1              4.1583568338        1.6298721973      -12.8451690080  MEOH      987             0.0000000000
     24620      1679  MEOH      DO1             4.1560747617        1.6083539914      -12.8496295434  MEOH      987             0.0000000000
     24621      1679  MEOH      HO1             3.7816522680        2.3659812386      -12.3380820824  MEOH      987             0.0000000000
     24622      1679  MEOH      HO2             5.1045717006        1.4354906121      -12.7568897628  MEOH      987             0.0000000000
     24623      1679  MEOH      H1A             3.8768461085       -0.4191952671      -13.0717056694  MEOH      987             0.0000000000
     24624      1679  MEOH      H1B             2.3901707254        0.5260240810      -12.6418539971  MEOH      987             0.0000000000
     24625      1679  MEOH      H1C             3.6586528237        0.2405762636      -11.3918955659  MEOH      987             0.0000000000
     24626      1679  MEOH      LP1A            4.4396050678        1.6770664148      -12.6422598247  MEOH      987             0.0000000000
     24627      1679  MEOH      LP1B            3.9968585304        1.7781935055      -13.1179676288  MEOH      987             0.0000000000
     24628      1680  MEOH      C1            -27.4451427416      -11.1852819823      -27.4540315147  MEOH      988             0.0000000000
     24629      1680  MEOH      DC1           -27.4440414337      -11.1939541888      -27.4575845561  MEOH      988             0.0000000000
     24630      1680  MEOH      O1            -26.6587814439       -9.9933707396      -27.3841988631  MEOH      988             0.0000000000
     24631      1680  MEOH      DO1           -26.6540635550      -10.0016471608      -27.3795432637  MEOH      988             0.0000000000
     24632      1680  MEOH      HO1           -26.1048239607       -9.9600926153      -28.1797638665  MEOH      988             0.0000000000
     24633      1680  MEOH      HO2           -27.2914753956       -9.2753531070      -27.2259299691  MEOH      988             0.0000000000
     24634      1680  MEOH      H1A           -28.1004541990      -11.2451060903      -26.5588728854  MEOH      988             0.0000000000
     24635      1680  MEOH      H1B           -26.7861800368      -12.0794625702      -27.4770582442  MEOH      988             0.0000000000
     24636      1680  MEOH      H1C           -28.0852198582      -11.1615371483      -28.3618081765  MEOH      988             0.0000000000
     24637      1680  MEOH      LP1A          -26.8318751684       -9.7269828584      -27.5310867771  MEOH      988             0.0000000000
     24638      1680  MEOH      LP1B          -26.3588742848      -10.0575306985      -27.2155596161  MEOH      988             0.0000000000
     24639      1681  MEOH      C1             29.2511453164       30.7989082380       10.8209654243  MEOH      989             0.0000000000
     24640      1681  MEOH      DC1            29.2401237934       30.7822881816       10.8226186585  MEOH      989             0.0000000000
     24641      1681  MEOH      O1             29.7762309982       31.9731549113       11.4412499081  MEOH      989             0.0000000000
     24642      1681  MEOH      DO1            29.7672152787       31.9507507414       11.4529954481  MEOH      989             0.0000000000
     24643      1681  MEOH      HO1            30.3006385211       32.4528234856       10.7810871929  MEOH      989             0.0000000000
     24644      1681  MEOH      HO2            29.0113926936       32.4226716197       11.8334961275  MEOH      989             0.0000000000
     24645      1681  MEOH      H1A            28.6358294655       30.2374871548       11.5561618413  MEOH      989             0.0000000000
     24646      1681  MEOH      H1B            30.0810986681       30.1505393188       10.4672477703  MEOH      989             0.0000000000
     24647      1681  MEOH      H1C            28.6163870076       31.0899800455        9.9568588948  MEOH      989             0.0000000000
     24648      1681  MEOH      LP1A           29.5498342544       32.2379042613       11.4073044215  MEOH      989             0.0000000000
     24649      1681  MEOH      LP1B           30.0855068329       31.9023744404       11.5890287395  MEOH      989             0.0000000000
     24650      1682  MEOH      C1             25.1915632497       15.6365718167      -22.2233126042  MEOH      990             0.0000000000
     24651      1682  MEOH      DC1            25.1881909882       15.6435199086      -22.2181500221  MEOH      990             0.0000000000
     24652      1682  MEOH      O1             24.6130403736       16.9270593097      -22.4013488318  MEOH      990             0.0000000000
     24653      1682  MEOH      DO1            24.6088303360       16.9281634093      -22.4018702326  MEOH      990             0.0000000000
     24654      1682  MEOH      HO1            24.2427317085       17.2087490069      -21.5502187553  MEOH      990             0.0000000000
     24655      1682  MEOH      HO2            25.2912173886       17.4594746212      -22.8457696611  MEOH      990             0.0000000000
     24656      1682  MEOH      H1A            25.5703111228       15.2530921245      -23.1948136978  MEOH      990             0.0000000000
     24657      1682  MEOH      H1B            24.4295782164       14.9290741022      -21.8319728631  MEOH      990             0.0000000000
     24658      1682  MEOH      H1C            26.0428893544       15.6971430450      -21.5120489462  MEOH      990             0.0000000000
     24659      1682  MEOH      LP1A           24.8531502004       17.1749578469      -22.3430943355  MEOH      990             0.0000000000
     24660      1682  MEOH      LP1B           24.2788568458       16.8957792404      -22.5005603587  MEOH      990             0.0000000000
     24661      1683  MEOH      C1              6.7110576458       17.6591551362      -28.9242947709  MEOH      991             0.0000000000
     24662      1683  MEOH      DC1             6.7183583893       17.6628003578      -28.9081025681  MEOH      991             0.0000000000
     24663      1683  MEOH      O1              8.0321494287       17.8486204938      -29.4270582880  MEOH      991             0.0000000000
     24664      1683  MEOH      DO1             8.0329614220       17.8645472642      -29.4183041868  MEOH      991             0.0000000000
     24665      1683  MEOH      HO1             8.5939670274       18.1731772397      -28.7060007976  MEOH      991             0.0000000000
     24666      1683  MEOH      HO2             8.2574868377       17.0020530514      -29.8435275174  MEOH      991             0.0000000000
     24667      1683  MEOH      H1A             6.0908213290       17.1987774038      -29.7228436145  MEOH      991             0.0000000000
     24668      1683  MEOH      H1B             6.2546404172       18.6333642253      -28.6469484818  MEOH      991             0.0000000000
     24669      1683  MEOH      H1C             6.7232252697       16.9807965129      -28.0445206359  MEOH      991             0.0000000000
     24670      1683  MEOH      LP1A            8.2165074098       17.5529979109      -29.3936005035  MEOH      991             0.0000000000
     24671      1683  MEOH      LP1B            8.0661291681       18.1725095201      -29.5552818270  MEOH      991             0.0000000000
     24672      1684  MEOH      C1            -18.4910593934        1.7654194961       36.7519480082  MEOH      992             0.0000000000
     24673      1684  MEOH      DC1           -18.4923899687        1.7431673238       36.7546628576  MEOH      992             0.0000000000
     24674      1684  MEOH      O1            -18.0362272975        0.4463939496       36.4867781931  MEOH      992             0.0000000000
     24675      1684  MEOH      DO1           -18.0498773305        0.4277279554       36.4983250493  MEOH      992             0.0000000000
     24676      1684  MEOH      HO1           -17.2919000869        0.5453082001       35.8726992286  MEOH      992             0.0000000000
     24677      1684  MEOH      HO2           -17.9206875961        0.0477406923       37.3634914636  MEOH      992             0.0000000000
     24678      1684  MEOH      H1A           -19.2206099338        1.6711015525       37.5845230108  MEOH      992             0.0000000000
     24679      1684  MEOH      H1B           -19.0101977666        2.2008470414       35.8714826754  MEOH      992             0.0000000000
     24680      1684  MEOH      H1C           -17.6705469907        2.4361572481       37.0854015538  MEOH      992             0.0000000000
     24681      1684  MEOH      LP1A          -17.7946878027        0.3534248704       36.7223953037  MEOH      992             0.0000000000
     24682      1684  MEOH      LP1B          -18.2092121751        0.3128110730       36.2134069306  MEOH      992             0.0000000000
     24683      1685  MEOH      C1              1.1106771435      -35.7700792606      -36.7629305398  MEOH      993             0.0000000000
     24684      1685  MEOH      DC1             1.1263410297      -35.7733865718      -36.7532436785  MEOH      993             0.0000000000
     24685      1685  MEOH      O1              1.3106038337      -36.9068488135      -35.9351529700  MEOH      993             0.0000000000
     24686      1685  MEOH      DO1             1.3183002931      -36.9046158304      -35.9310462261  MEOH      993             0.0000000000
     24687      1685  MEOH      HO1             0.5316275981      -36.9608078392      -35.3596666992  MEOH      993             0.0000000000
     24688      1685  MEOH      HO2             1.4958449709      -37.6307141306      -36.5537034726  MEOH      993             0.0000000000
     24689      1685  MEOH      H1A             1.9371498274      -35.6484383911      -37.4953698900  MEOH      993             0.0000000000
     24690      1685  MEOH      H1B             1.0618954557      -34.8428449854      -36.1528666515  MEOH      993             0.0000000000
     24691      1685  MEOH      H1C             0.1726535546      -35.8644415904      -37.3507472613  MEOH      993             0.0000000000
     24692      1685  MEOH      LP1A            1.1810659400      -37.1924149123      -36.0906262387  MEOH      993             0.0000000000
     24693      1685  MEOH      LP1B            1.4839026314      -36.8148812933      -35.6453090432  MEOH      993             0.0000000000
     24694      1686  MEOH      C1            -13.2450220533       12.7859741212       -2.5942709727  MEOH      994             0.0000000000
     24695      1686  MEOH      DC1           -13.2601463027       12.7854132577       -2.5998201098  MEOH      994             0.0000000000
     24696      1686  MEOH      O1            -13.9106020308       12.9635802616       -3.8489881582  MEOH      994             0.0000000000
     24697      1686  MEOH      DO1           -13.9265464648       12.9610439828       -3.8523338499  MEOH      994             0.0000000000
     24698      1686  MEOH      HO1           -13.9668676617       13.9204909082       -3.9975014344  MEOH      994             0.0000000000
     24699      1686  MEOH      HO2           -13.4273614463       12.4184943384       -4.4895034775  MEOH      994             0.0000000000
     24700      1686  MEOH      H1A           -13.0926203404       11.7059164844       -2.3831543702  MEOH      994             0.0000000000
     24701      1686  MEOH      H1B           -13.8421456100       13.2206420753       -1.7643142101  MEOH      994             0.0000000000
     24702      1686  MEOH      H1C           -12.2390949538       13.2557009431       -2.6365602744  MEOH      994             0.0000000000
     24703      1686  MEOH      LP1A          -13.6766815127       12.9657619701       -4.1093272282  MEOH      994             0.0000000000
     24704      1686  MEOH      LP1B          -14.2567321563       12.9797164789       -3.7996570449  MEOH      994             0.0000000000
     24705      1687  MEOH      C1            -16.2296756570       24.4788583974      -32.0216466981  MEOH      995             0.0000000000
     24706      1687  MEOH      DC1           -16.2306169883       24.4703782428      -32.0267467695  MEOH      995             0.0000000000
     24707      1687  MEOH      O1            -15.3505096281       24.8293293437      -30.9551722663  MEOH      995             0.0000000000
     24708      1687  MEOH      DO1           -15.3516276171       24.8306739805      -30.9630964177  MEOH      995             0.0000000000
     24709      1687  MEOH      HO1           -14.9714021352       24.0151811851      -30.5886476626  MEOH      995             0.0000000000
     24710      1687  MEOH      HO2           -14.7820182508       25.5363657901      -31.2984171024  MEOH      995             0.0000000000
     24711      1687  MEOH      H1A           -16.8569350583       25.3603280987      -32.2743872949  MEOH      995             0.0000000000
     24712      1687  MEOH      H1B           -16.8896294338       23.6401573343      -31.7128384396  MEOH      995             0.0000000000
     24713      1687  MEOH      H1C           -15.6543331457       24.1676853306      -32.9196852929  MEOH      995             0.0000000000
     24714      1687  MEOH      LP1A          -15.0279913990       24.8848813259      -31.0792527610  MEOH      995             0.0000000000
     24715      1687  MEOH      LP1B          -15.5277732300       24.8437281974      -30.6537252752  MEOH      995             0.0000000000
     24716      1688  MEOH      C1            -28.4847224724       25.1013617894       32.8103620521  MEOH      996             0.0000000000
     24717      1688  MEOH      DC1           -28.4800998807       25.1051038710       32.7986460001  MEOH      996             0.0000000000
     24718      1688  MEOH      O1            -28.9688978965       23.7929090739       32.5035331090  MEOH      996             0.0000000000
     24719      1688  MEOH      DO1           -28.9659488021       23.8015950075       32.4932814906  MEOH      996             0.0000000000
     24720      1688  MEOH      HO1           -29.8870812851       23.7221094472       32.8082078171  MEOH      996             0.0000000000
     24721      1688  MEOH      HO2           -28.7165301266       23.6088272498       31.5852061562  MEOH      996             0.0000000000
     24722      1688  MEOH      H1A           -27.3803474310       25.1275471611       32.6920780924  MEOH      996             0.0000000000
     24723      1688  MEOH      H1B           -28.7386499266       25.3627492215       33.8598945472  MEOH      996             0.0000000000
     24724      1688  MEOH      H1C           -28.9429351232       25.8469939488       32.1259682681  MEOH      996             0.0000000000
     24725      1688  MEOH      LP1A          -29.1097027117       23.7894571236       32.1831238581  MEOH      996             0.0000000000
     24726      1688  MEOH      LP1B          -28.8990844572       23.5743970831       32.7678787039  MEOH      996             0.0000000000
     24727      1689  MEOH      C1            -25.1798736041       35.6638935162       22.9860367506  MEOH      997             0.0000000000
     24728      1689  MEOH      DC1           -25.1755820979       35.6653887640       22.9844261687  MEOH      997             0.0000000000
     24729      1689  MEOH      O1            -24.0453592520       36.4635575740       22.6873495177  MEOH      997             0.0000000000
     24730      1689  MEOH      DO1           -24.0419543567       36.4592759550       22.6897984967  MEOH      997             0.0000000000
     24731      1689  MEOH      HO1           -24.3566460734       37.1979463506       22.1353770188  MEOH      997             0.0000000000
     24732      1689  MEOH      HO2           -23.6496300385       36.6658715285       23.5495371155  MEOH      997             0.0000000000
     24733      1689  MEOH      H1A           -24.8491191325       34.8805300472       23.7010641318  MEOH      997             0.0000000000
     24734      1689  MEOH      H1B           -25.5936260157       35.2251794443       22.0529451661  MEOH      997             0.0000000000
     24735      1689  MEOH      H1C           -25.9854954668       36.2186007353       23.5129089530  MEOH      997             0.0000000000
     24736      1689  MEOH      LP1A          -24.0017851816       36.7068398841       22.9351700535  MEOH      997             0.0000000000
     24737      1689  MEOH      LP1B          -23.8909983419       36.3479960676       22.3952566426  MEOH      997             0.0000000000
     24738      1690  MEOH      C1             14.8791508737      -18.8402508624      -13.5089863965  MEOH      998             0.0000000000
     24739      1690  MEOH      DC1            14.9022416504      -18.8445849462      -13.5078208942  MEOH      998             0.0000000000
     24740      1690  MEOH      O1             13.6935524771      -19.4307726633      -14.0493501795  MEOH      998             0.0000000000
     24741      1690  MEOH      DO1            13.7256484182      -19.4709109370      -14.0331119324  MEOH      998             0.0000000000
     24742      1690  MEOH      HO1            13.1196936274      -19.7139068013      -13.3203638411  MEOH      998             0.0000000000
     24743      1690  MEOH      HO2            13.3162350416      -18.7289560219      -14.6025092477  MEOH      998             0.0000000000
     24744      1690  MEOH      H1A            15.4248058485      -18.3023870117      -14.3135260950  MEOH      998             0.0000000000
     24745      1690  MEOH      H1B            15.5230883260      -19.6262204994      -13.0596343202  MEOH      998             0.0000000000
     24746      1690  MEOH      H1C            14.6440505606      -18.0996351107      -12.7149227017  MEOH      998             0.0000000000
     24747      1690  MEOH      LP1A           13.4499699829      -19.1847393084      -14.1006839576  MEOH      998             0.0000000000
     24748      1690  MEOH      LP1B           13.7426047172      -19.7737311996      -14.0990826648  MEOH      998             0.0000000000
     24749      1691  MEOH      C1             -1.7849551997      -32.5601972334        7.0024467664  MEOH      999             0.0000000000
     24750      1691  MEOH      DC1            -1.8013516865      -32.5568395693        7.0010237411  MEOH      999             0.0000000000
     24751      1691  MEOH      O1             -3.0211672943      -32.7646315236        7.6907202848  MEOH      999             0.0000000000
     24752      1691  MEOH      DO1            -3.0327728210      -32.7574973014        7.6880083587  MEOH      999             0.0000000000
     24753      1691  MEOH      HO1            -3.4163842363      -33.5661151534        7.3134570322  MEOH      999             0.0000000000
     24754      1691  MEOH      HO2            -2.7933633509      -32.7556673122        8.6335484803  MEOH      999             0.0000000000
     24755      1691  MEOH      H1A            -1.2793449656      -31.6605125661        7.4138429174  MEOH      999             0.0000000000
     24756      1691  MEOH      H1B            -1.9503661198      -32.4136787355        5.9136434973  MEOH      999             0.0000000000
     24757      1691  MEOH      H1C            -1.1170999800      -33.4363298966        7.1462590121  MEOH      999             0.0000000000
     24758      1691  MEOH      LP1A           -2.9682374104      -32.9596259744        7.9765097030  MEOH      999             0.0000000000
     24759      1691  MEOH      LP1B           -3.2791804927      -32.5944679963        7.5264839811  MEOH      999             0.0000000000
     24760      1692  MEOH      C1            -23.0891825750        5.7546722767      -25.7627885218  MEOH      1000            0.0000000000
     24761      1692  MEOH      DC1           -23.0900346200        5.7716487865      -25.7443756567  MEOH      1000            0.0000000000
     24762      1692  MEOH      O1            -23.8199635417        4.5634362960      -26.0572511688  MEOH      1000            0.0000000000
     24763      1692  MEOH      DO1           -23.8215828513        4.5815945658      -26.0409907129  MEOH      1000            0.0000000000
     24764      1692  MEOH      HO1           -23.4966373959        3.8178901441      -25.5276087050  MEOH      1000            0.0000000000
     24765      1692  MEOH      HO2           -24.7564797625        4.8008426023      -26.1437128021  MEOH      1000            0.0000000000
     24766      1692  MEOH      H1A           -23.2523826699        6.4981748011      -26.5720417116  MEOH      1000            0.0000000000
     24767      1692  MEOH      H1B           -22.0024754556        5.5329965229      -25.6976080147  MEOH      1000            0.0000000000
     24768      1692  MEOH      H1C           -23.4516024337        6.1967735439      -24.8101504393  MEOH      1000            0.0000000000
     24769      1692  MEOH      LP1A          -24.1005874991        4.5406716515      -25.8493281890  MEOH      1000            0.0000000000
     24770      1692  MEOH      LP1B          -23.6681916333        4.3922908344      -26.3221559041  MEOH      1000            0.0000000000
     24771      1693  MEOH      C1            -33.1004981471       -9.6989645535       -9.3633852793  MEOH      1001            0.0000000000
     24772      1693  MEOH      DC1           -33.1152912605       -9.7118201846       -9.3603833193  MEOH      1001            0.0000000000
     24773      1693  MEOH      O1            -32.3347983107      -10.3225585714       -8.3325628049  MEOH      1001            0.0000000000
     24774      1693  MEOH      DO1           -32.3586086484      -10.3343979835       -8.3288902546  MEOH      1001            0.0000000000
     24775      1693  MEOH      HO1           -31.8142483341      -11.0320980654       -8.7405841624  MEOH      1001            0.0000000000
     24776      1693  MEOH      HO2           -31.8458729991       -9.5960165737       -7.9154431984  MEOH      1001            0.0000000000
     24777      1693  MEOH      H1A           -33.6349104240       -8.8211802956       -8.9412249839  MEOH      1001            0.0000000000
     24778      1693  MEOH      H1B           -33.8402108040      -10.4188091011       -9.7744449030  MEOH      1001            0.0000000000
     24779      1693  MEOH      H1C           -32.4347090439       -9.3441200889      -10.1789410877  MEOH      1001            0.0000000000
     24780      1693  MEOH      LP1A          -32.0271120703      -10.1596221660       -8.2967730681  MEOH      1001            0.0000000000
     24781      1693  MEOH      LP1B          -32.5185683998      -10.5828660514       -8.1877575210  MEOH      1001            0.0000000000
     24782      1694  MEOH      C1              1.6913149722       28.2310939248      -21.1505669192  MEOH      1002            0.0000000000
     24783      1694  MEOH      DC1             1.6954691645       28.2440922670      -21.1707811899  MEOH      1002            0.0000000000
     24784      1694  MEOH      O1              0.6645527134       29.0738259171      -21.6857183929  MEOH      1002            0.0000000000
     24785      1694  MEOH      DO1             0.6839331934       29.0976016004      -21.7125324339  MEOH      1002            0.0000000000
     24786      1694  MEOH      HO1            -0.1408857273       28.5335221802      -21.7012358290  MEOH      1002            0.0000000000
     24787      1694  MEOH      HO2             0.6643450314       29.8602185548      -21.1178393773  MEOH      1002            0.0000000000
     24788      1694  MEOH      H1A             2.6056739525       28.8199223077      -20.9235211286  MEOH      1002            0.0000000000
     24789      1694  MEOH      H1B             1.9271588807       27.4262156410      -21.8791749065  MEOH      1002            0.0000000000
     24790      1694  MEOH      H1C             1.3436352139       27.7572235613      -20.2077590564  MEOH      1002            0.0000000000
     24791      1694  MEOH      LP1A            0.5081289460       29.2507168232      -21.4273751864  MEOH      1002            0.0000000000
     24792      1694  MEOH      LP1B            0.6568915554       29.0463924699      -22.0345574856  MEOH      1002            0.0000000000
     24793      1695  MEOH      C1            -13.7211164301       13.3463333738       32.7086526264  MEOH      1003            0.0000000000
     24794      1695  MEOH      DC1           -13.7161484684       13.3625778329       32.6942410611  MEOH      1003            0.0000000000
     24795      1695  MEOH      O1            -13.0999484585       13.6061230612       31.4494945730  MEOH      1003            0.0000000000
     24796      1695  MEOH      DO1           -13.0904803148       13.6185917661       31.4361814470  MEOH      1003            0.0000000000
     24797      1695  MEOH      HO1           -13.4884735645       14.4359165058       31.1310749092  MEOH      1003            0.0000000000
     24798      1695  MEOH      HO2           -12.1463217774       13.5421135652       31.6150208169  MEOH      1003            0.0000000000
     24799      1695  MEOH      H1A           -13.3619620953       12.3783413837       33.1189216489  MEOH      1003            0.0000000000
     24800      1695  MEOH      H1B           -14.8251395817       13.2905670872       32.5975490566  MEOH      1003            0.0000000000
     24801      1695  MEOH      H1C           -13.4627101494       14.1586934339       33.4211260136  MEOH      1003            0.0000000000
     24802      1695  MEOH      LP1A          -12.8074782692       13.7925431845       31.4964916576  MEOH      1003            0.0000000000
     24803      1695  MEOH      LP1B          -13.2820841223       13.4536481254       31.1924381708  MEOH      1003            0.0000000000
     24804      1696  MEOH      C1              1.7472373141       14.3358887263      -25.7402420631  MEOH      1004            0.0000000000
     24805      1696  MEOH      DC1             1.7753191296       14.3290134536      -25.7327329778  MEOH      1004            0.0000000000
     24806      1696  MEOH      O1              0.4211766217       14.0276968363      -26.1625369101  MEOH      1004            0.0000000000
     24807      1696  MEOH      DO1             0.4388871320       14.0336735121      -26.1545590214  MEOH      1004            0.0000000000
     24808      1696  MEOH      HO1             0.2132323264       14.5417045073      -26.9584359523  MEOH      1004            0.0000000000
     24809      1696  MEOH      HO2             0.3575255946       13.0599193830      -26.1785165106  MEOH      1004            0.0000000000
     24810      1696  MEOH      H1A             1.9487965137       13.8046945894      -24.7855024755  MEOH      1004            0.0000000000
     24811      1696  MEOH      H1B             1.8369119987       15.4292032470      -25.5643363793  MEOH      1004            0.0000000000
     24812      1696  MEOH      H1C             2.4692637909       14.0153078742      -26.5214121373  MEOH      1004            0.0000000000
     24813      1696  MEOH      LP1A            0.4256631796       13.7545602525      -26.3813433939  MEOH      1004            0.0000000000
     24814      1696  MEOH      LP1B            0.1928580992       14.2417674158      -26.0058702599  MEOH      1004            0.0000000000
     24815      1697  MEOH      C1             30.4683757314       31.0795723197        6.9711053169  MEOH      1005            0.0000000000
     24816      1697  MEOH      DC1            30.4500338904       31.0464467123        6.9743002143  MEOH      1005            0.0000000000
     24817      1697  MEOH      O1             29.7142087104       29.9519182676        7.4254725795  MEOH      1005            0.0000000000
     24818      1697  MEOH      DO1            29.6980812260       29.9297143086        7.4227836596  MEOH      1005            0.0000000000
     24819      1697  MEOH      HO1            29.0955436141       29.7324706313        6.7113323729  MEOH      1005            0.0000000000
     24820      1697  MEOH      HO2            30.3545185855       29.3050419140        7.7608145646  MEOH      1005            0.0000000000
     24821      1697  MEOH      H1A            31.0902739327       31.4789229342        7.8006128303  MEOH      1005            0.0000000000
     24822      1697  MEOH      H1B            29.7946489851       31.8935747912        6.6278659721  MEOH      1005            0.0000000000
     24823      1697  MEOH      H1C            31.1318523860       30.7862088626        6.1296437238  MEOH      1005            0.0000000000
     24824      1697  MEOH      LP1A           29.8774715971       29.6552259955        7.3370478912  MEOH      1005            0.0000000000
     24825      1697  MEOH      LP1B           29.4305993250       30.0599641165        7.5998050522  MEOH      1005            0.0000000000
     24826      1698  MEOH      C1             -4.6849824173        0.4581970526      -24.2926164542  MEOH      1006            0.0000000000
     24827      1698  MEOH      DC1            -4.6588832395        0.4442275837      -24.2715536621  MEOH      1006            0.0000000000
     24828      1698  MEOH      O1             -3.5046695380       -0.3314780536      -24.1630549590  MEOH      1006            0.0000000000
     24829      1698  MEOH      DO1            -3.4841597097       -0.3419246136      -24.1444009612  MEOH      1006            0.0000000000
     24830      1698  MEOH      HO1            -3.8070778164       -1.2337189647      -24.3512319287  MEOH      1006            0.0000000000
     24831      1698  MEOH      HO2            -2.8678070687        0.0631660361      -24.7791411848  MEOH      1006            0.0000000000
     24832      1698  MEOH      H1A            -4.4560483226        1.5399512175      -24.1843662462  MEOH      1006            0.0000000000
     24833      1698  MEOH      H1B            -5.4216423885        0.1700807742      -23.5124612794  MEOH      1006            0.0000000000
     24834      1698  MEOH      H1C            -5.1479611333        0.3028864589      -25.2905394622  MEOH      1006            0.0000000000
     24835      1698  MEOH      LP1A           -3.3375654505       -0.3482616910      -24.4701291087  MEOH      1006            0.0000000000
     24836      1698  MEOH      LP1B           -3.4675809710       -0.4378431804      -23.8316776846  MEOH      1006            0.0000000000
     24837      1699  MEOH      C1             20.2104534796      -18.5596553045       -0.2745617764  MEOH      1007            0.0000000000
     24838      1699  MEOH      DC1            20.2075490960      -18.5545729602       -0.2966708941  MEOH      1007            0.0000000000
     24839      1699  MEOH      O1             21.1545074977      -18.3338582419       -1.3220087755  MEOH      1007            0.0000000000
     24840      1699  MEOH      DO1            21.1423527418      -18.3365897769       -1.3532979731  MEOH      1007            0.0000000000
     24841      1699  MEOH      HO1            21.8344001234      -19.0189477955       -1.2255809690  MEOH      1007            0.0000000000
     24842      1699  MEOH      HO2            20.6451885492      -18.1877181134       -2.1344970964  MEOH      1007            0.0000000000
     24843      1699  MEOH      H1A            19.5287921476      -17.6900658670       -0.1584883574  MEOH      1007            0.0000000000
     24844      1699  MEOH      H1B            20.7395972758      -18.7013041272        0.6920112712  MEOH      1007            0.0000000000
     24845      1699  MEOH      H1C            19.6150969935      -19.4707557603       -0.4976483399  MEOH      1007            0.0000000000
     24846      1699  MEOH      LP1A           21.0585526954      -18.5089873025       -1.6094500531  MEOH      1007            0.0000000000
     24847      1699  MEOH      LP1B           21.4025566622      -18.1119048333       -1.2138038939  MEOH      1007            0.0000000000
     24848      1700  MEOH      C1             13.8238348896       -6.8194653265        2.9291068360  MEOH      1008            0.0000000000
     24849      1700  MEOH      DC1            13.8339915671       -6.8211624452        2.9122732004  MEOH      1008            0.0000000000
     24850      1700  MEOH      O1             14.8194033643       -5.8227926660        2.6734379592  MEOH      1008            0.0000000000
     24851      1700  MEOH      DO1            14.8202308674       -5.8277442767        2.6464485202  MEOH      1008            0.0000000000
     24852      1700  MEOH      HO1            14.4913279208       -4.9966992443        3.0618142742  MEOH      1008            0.0000000000
     24853      1700  MEOH      HO2            15.6378637218       -6.1942040791        3.0382340758  MEOH      1008            0.0000000000
     24854      1700  MEOH      H1A            14.1734477107       -7.8110619779        2.5701807206  MEOH      1008            0.0000000000
     24855      1700  MEOH      H1B            12.8653275038       -6.5684304361        2.4265473097  MEOH      1008            0.0000000000
     24856      1700  MEOH      H1C            13.6190717560       -6.8813253908        4.0193207565  MEOH      1008            0.0000000000
     24857      1700  MEOH      LP1A           15.0537090454       -5.8181914136        2.9333988723  MEOH      1008            0.0000000000
     24858      1700  MEOH      LP1B           14.7580119368       -5.6685481280        2.3653150696  MEOH      1008            0.0000000000
     24859      1701  MEOH      C1              5.6943795899       -4.9247601473       13.7203399219  MEOH      1009            0.0000000000
     24860      1701  MEOH      DC1             5.6877889307       -4.9230168407       13.7139448238  MEOH      1009            0.0000000000
     24861      1701  MEOH      O1              4.7957659631       -5.0750777955       12.6224451007  MEOH      1009            0.0000000000
     24862      1701  MEOH      DO1             4.7880518097       -5.0920493761       12.6125969622  MEOH      1009            0.0000000000
     24863      1701  MEOH      HO1             4.2364911407       -4.2826175807       12.6333299996  MEOH      1009            0.0000000000
     24864      1701  MEOH      HO2             5.3576064534       -5.2723619528       11.8567335193  MEOH      1009            0.0000000000
     24865      1701  MEOH      H1A             6.3311784184       -5.8315675776       13.8010154268  MEOH      1009            0.0000000000
     24866      1701  MEOH      H1B             5.1311213565       -4.7995562168       14.6697529713  MEOH      1009            0.0000000000
     24867      1701  MEOH      H1C             6.3504430835       -4.0429031660       13.5583832659  MEOH      1009            0.0000000000
     24868      1701  MEOH      LP1A            4.9370083985       -4.9388498341       12.3326304755  MEOH      1009            0.0000000000
     24869      1701  MEOH      LP1B            4.5085837300       -5.2466036803       12.7254268265  MEOH      1009            0.0000000000
     24870      1702  MEOH      C1            -11.9780578005       -3.9188736282      -22.7636346588  MEOH      1010            0.0000000000
     24871      1702  MEOH      DC1           -11.9753796283       -3.9174353411      -22.7783963249  MEOH      1010            0.0000000000
     24872      1702  MEOH      O1            -12.4202663463       -3.3392639036      -23.9931059721  MEOH      1010            0.0000000000
     24873      1702  MEOH      DO1           -12.4236320678       -3.3396688108      -23.9992077148  MEOH      1010            0.0000000000
     24874      1702  MEOH      HO1           -11.8909259967       -3.7276472010      -24.7071488343  MEOH      1010            0.0000000000
     24875      1702  MEOH      HO2           -13.3869168270       -3.4197591324      -23.9958200530  MEOH      1010            0.0000000000
     24876      1702  MEOH      H1A           -12.5114353376       -3.4397393469      -21.9149534800  MEOH      1010            0.0000000000
     24877      1702  MEOH      H1B           -10.8875500776       -3.7530932316      -22.6308537565  MEOH      1010            0.0000000000
     24878      1702  MEOH      H1C           -12.1920734516       -5.0089331862      -22.7466504999  MEOH      1010            0.0000000000
     24879      1702  MEOH      LP1A          -12.6829154247       -3.5280483855      -24.1268066865  MEOH      1010            0.0000000000
     24880      1702  MEOH      LP1B          -12.2393822133       -3.0471006266      -24.0596007088  MEOH      1010            0.0000000000
     24881      1703  MEOH      C1             10.0620228925      -36.5136896335      -16.8227950734  MEOH      1011            0.0000000000
     24882      1703  MEOH      DC1            10.0588380428      -36.4844183099      -16.8163641827  MEOH      1011            0.0000000000
     24883      1703  MEOH      O1              9.1863445901      -36.6795459783      -17.9357764170  MEOH      1011            0.0000000000
     24884      1703  MEOH      DO1             9.1901905144      -36.6573065131      -17.9334930860  MEOH      1011            0.0000000000
     24885      1703  MEOH      HO1             8.6079923940      -37.4339217230      -17.7425771075  MEOH      1011            0.0000000000
     24886      1703  MEOH      HO2             8.8387476032      -35.8024422113      -18.1610880185  MEOH      1011            0.0000000000
     24887      1703  MEOH      H1A            10.8464567125      -35.7755251075      -17.0950040280  MEOH      1011            0.0000000000
     24888      1703  MEOH      H1B            10.5667101671      -37.4743439115      -16.5845617570  MEOH      1011            0.0000000000
     24889      1703  MEOH      H1C             9.4958094649      -36.1686052969      -15.9313691615  MEOH      1011            0.0000000000
     24890      1703  MEOH      LP1A            8.8979669907      -36.4863187111      -17.8910373578  MEOH      1011            0.0000000000
     24891      1703  MEOH      LP1B            9.3326385970      -36.8916811638      -18.1726238924  MEOH      1011            0.0000000000
     24892      1704  MEOH      C1             -3.7085590378       34.3921782081       36.4834793075  MEOH      1012            0.0000000000
     24893      1704  MEOH      DC1            -3.6952351274       34.3873149525       36.4764121935  MEOH      1012            0.0000000000
     24894      1704  MEOH      O1             -3.9533676931       33.0552878619       36.9246311440  MEOH      1012            0.0000000000
     24895      1704  MEOH      DO1            -3.9481924363       33.0568096755       36.9243869733  MEOH      1012            0.0000000000
     24896      1704  MEOH      HO1            -3.2683472933       32.8075891253       37.5651718435  MEOH      1012            0.0000000000
     24897      1704  MEOH      HO2            -4.8908656609       33.0192150537       37.1709973632  MEOH      1012            0.0000000000
     24898      1704  MEOH      H1A            -4.4354929572       34.6511190342       35.6842060590  MEOH      1012            0.0000000000
     24899      1704  MEOH      H1B            -2.6785155671       34.4898735439       36.0787731539  MEOH      1012            0.0000000000
     24900      1704  MEOH      H1C            -3.8378260594       35.0999966807       37.3300039952  MEOH      1012            0.0000000000
     24901      1704  MEOH      LP1A           -4.1656892229       33.0580313234       37.2028613390  MEOH      1012            0.0000000000
     24902      1704  MEOH      LP1B           -3.7912946089       32.8279961077       36.7135132294  MEOH      1012            0.0000000000
     24903      1705  MEOH      C1             35.1890362493       17.5643986420        8.7663020184  MEOH      1013            0.0000000000
     24904      1705  MEOH      DC1            35.1707486177       17.5695418549        8.7770010556  MEOH      1013            0.0000000000
     24905      1705  MEOH      O1             34.6857482170       16.7820290400        9.8522815605  MEOH      1013            0.0000000000
     24906      1705  MEOH      DO1            34.6770364478       16.7879850707        9.8663052185  MEOH      1013            0.0000000000
     24907      1705  MEOH      HO1            35.4583059465       16.3751857363       10.2748133118  MEOH      1013            0.0000000000
     24908      1705  MEOH      HO2            34.0575078947       17.3437056916       10.3326287665  MEOH      1013            0.0000000000
     24909      1705  MEOH      H1A            34.3474456677       18.0252315487        8.2062311965  MEOH      1013            0.0000000000
     24910      1705  MEOH      H1B            35.7426708707       16.9096050223        8.0598637540  MEOH      1013            0.0000000000
     24911      1705  MEOH      H1C            35.8741202015       18.3543805983        9.1416811452  MEOH      1013            0.0000000000
     24912      1705  MEOH      LP1A           34.6657379565       16.9778346531       10.1416943303  MEOH      1013            0.0000000000
     24913      1705  MEOH      LP1B           34.6107912396       16.4584162331        9.7420263893  MEOH      1013            0.0000000000
     24914      1706  MEOH      C1             -1.5960504688       33.0711575485       -3.5747400268  MEOH      1014            0.0000000000
     24915      1706  MEOH      DC1            -1.5960785828       33.0932789742       -3.5870206020  MEOH      1014            0.0000000000
     24916      1706  MEOH      O1             -1.2774447615       34.2867724921       -4.2614601791  MEOH      1014            0.0000000000
     24917      1706  MEOH      DO1            -1.2792636385       34.3018095539       -4.2760728510  MEOH      1014            0.0000000000
     24918      1706  MEOH      HO1            -2.1241188968       34.6771541381       -4.5291261633  MEOH      1014            0.0000000000
     24919      1706  MEOH      HO2            -0.6914268456       34.7759471496       -3.6629694463  MEOH      1014            0.0000000000
     24920      1706  MEOH      H1A            -0.6644084479       32.5420756938       -3.2807391144  MEOH      1014            0.0000000000
     24921      1706  MEOH      H1B            -2.1812545727       32.3916839206       -4.2306155834  MEOH      1014            0.0000000000
     24922      1706  MEOH      H1C            -2.1904890116       33.2841928062       -2.6606394857  MEOH      1014            0.0000000000
     24923      1706  MEOH      LP1A           -1.2593494326       34.5517935942       -4.0335646448  MEOH      1014            0.0000000000
     24924      1706  MEOH      LP1B           -1.2310939700       34.2230061963       -4.6024667240  MEOH      1014            0.0000000000
     24925      1707  MEOH      C1             28.6200529409        4.5765466492        2.5983359670  MEOH      1015            0.0000000000
     24926      1707  MEOH      DC1            28.6086100052        4.5752975057        2.6030162115  MEOH      1015            0.0000000000
     24927      1707  MEOH      O1             27.6923968673        5.6640257765        2.5594296189  MEOH      1015            0.0000000000
     24928      1707  MEOH      DO1            27.6879503995        5.6619194743        2.5605211600  MEOH      1015            0.0000000000
     24929      1707  MEOH      HO1            28.2050098617        6.4777464983        2.4329918682  MEOH      1015            0.0000000000
     24930      1707  MEOH      HO2            27.0131823999        5.4160902229        1.9128264410  MEOH      1015            0.0000000000
     24931      1707  MEOH      H1A            28.0792228207        3.6241928919        2.7850070797  MEOH      1015            0.0000000000
     24932      1707  MEOH      H1B            29.3737507159        4.7347095891        3.3991138071  MEOH      1015            0.0000000000
     24933      1707  MEOH      H1C            29.1566249419        4.5027125376        1.6283050336  MEOH      1015            0.0000000000
     24934      1707  MEOH      LP1A           27.5841000310        5.7172931949        2.2308959412  MEOH      1015            0.0000000000
     24935      1707  MEOH      LP1B           27.6366866126        5.7854785139        2.8829193407  MEOH      1015            0.0000000000
     24936      1708  MEOH      C1            -18.1698990965      -22.8533670989      -21.9341976693  MEOH      1016            0.0000000000
     24937      1708  MEOH      DC1           -18.1745383545      -22.8513583951      -21.9389032786  MEOH      1016            0.0000000000
     24938      1708  MEOH      O1            -19.3393361421      -23.4792650397      -21.4000809690  MEOH      1016            0.0000000000
     24939      1708  MEOH      DO1           -19.3307243063      -23.4905695336      -21.4088351765  MEOH      1016            0.0000000000
     24940      1708  MEOH      HO1           -19.9454987403      -23.6911149717      -22.1271205228  MEOH      1016            0.0000000000
     24941      1708  MEOH      HO2           -19.0378708008      -24.1611627161      -20.7795697226  MEOH      1016            0.0000000000
     24942      1708  MEOH      H1A           -17.5788779304      -22.4201826074      -21.0991131347  MEOH      1016            0.0000000000
     24943      1708  MEOH      H1B           -18.4425500539      -22.0282893949      -22.6264615198  MEOH      1016            0.0000000000
     24944      1708  MEOH      H1C           -17.5479536320      -23.6017887227      -22.4702666128  MEOH      1016            0.0000000000
     24945      1708  MEOH      LP1A          -19.2925291166      -23.8257050589      -21.3830981689  MEOH      1016            0.0000000000
     24946      1708  MEOH      LP1B          -19.5776020061      -23.2367059769      -21.3170479689  MEOH      1016            0.0000000000
     24947      1709  MEOH      C1            -33.8039733889       -7.9468236933       21.2744790253  MEOH      1017            0.0000000000
     24948      1709  MEOH      DC1           -33.8194554507       -7.9534182837       21.2684288275  MEOH      1017            0.0000000000
     24949      1709  MEOH      O1            -32.8007539558       -8.8445993992       21.7531235414  MEOH      1017            0.0000000000
     24950      1709  MEOH      DO1           -32.8152385478       -8.8444047784       21.7506005823  MEOH      1017            0.0000000000
     24951      1709  MEOH      HO1           -32.1598347802       -8.3268412395       22.2650308562  MEOH      1017            0.0000000000
     24952      1709  MEOH      HO2           -33.2714427647       -9.5832264319       22.1699954062  MEOH      1017            0.0000000000
     24953      1709  MEOH      H1A           -34.5085500580       -8.4976648284       20.6153380976  MEOH      1017            0.0000000000
     24954      1709  MEOH      H1B           -33.3360323262       -7.1258541978       20.6902177399  MEOH      1017            0.0000000000
     24955      1709  MEOH      H1C           -34.3652951393       -7.5213692123       22.1336806181  MEOH      1017            0.0000000000
     24956      1709  MEOH      LP1A          -32.8956539296       -8.9757117632       22.0634516629  MEOH      1017            0.0000000000
     24957      1709  MEOH      LP1B          -32.5431359959       -8.8726658469       21.5178678055  MEOH      1017            0.0000000000
     24958      1710  MEOH      C1            -22.9936330207       14.3750582761       -4.5994907595  MEOH      1018            0.0000000000
     24959      1710  MEOH      DC1           -22.9931425537       14.3697968061       -4.5979555519  MEOH      1018            0.0000000000
     24960      1710  MEOH      O1            -21.7214050029       14.1128457317       -4.0024307613  MEOH      1018            0.0000000000
     24961      1710  MEOH      DO1           -21.7293291132       14.1055933317       -3.9932719123  MEOH      1018            0.0000000000
     24962      1710  MEOH      HO1           -21.6513858956       14.5568207181       -3.1428474111  MEOH      1018            0.0000000000
     24963      1710  MEOH      HO2           -21.5364098930       13.1690004299       -4.1282594409  MEOH      1018            0.0000000000
     24964      1710  MEOH      H1A           -23.0263022834       13.9519370675       -5.6262439735  MEOH      1018            0.0000000000
     24965      1710  MEOH      H1B           -23.1697646862       15.4698249015       -4.6686620854  MEOH      1018            0.0000000000
     24966      1710  MEOH      H1C           -23.7978847062       13.9142290933       -3.9870067253  MEOH      1018            0.0000000000
     24967      1710  MEOH      LP1A          -21.7375890409       13.8213946555       -3.8093133176  MEOH      1018            0.0000000000
     24968      1710  MEOH      LP1B          -21.4892270568       14.3539869521       -4.1046281838  MEOH      1018            0.0000000000
     24969      1711  MEOH      C1            -10.1829774316      -14.2559257634        1.0619622821  MEOH      1019            0.0000000000
     24970      1711  MEOH      DC1           -10.2003280561      -14.2613305626        1.0528124662  MEOH      1019            0.0000000000
     24971      1711  MEOH      O1            -11.3369489546      -13.9137234818        0.2863643016  MEOH      1019            0.0000000000
     24972      1711  MEOH      DO1           -11.3568360277      -13.9113850915        0.2819602424  MEOH      1019            0.0000000000
     24973      1711  MEOH      HO1           -11.3892613244      -14.5589725499       -0.4360047565  MEOH      1019            0.0000000000
     24974      1711  MEOH      HO2           -12.0634100569      -13.7767906127        0.9143799521  MEOH      1019            0.0000000000
     24975      1711  MEOH      H1A            -9.9654953357      -13.4578666853        1.8036658926  MEOH      1019            0.0000000000
     24976      1711  MEOH      H1B            -9.2995701937      -14.3820499310        0.4001425576  MEOH      1019            0.0000000000
     24977      1711  MEOH      H1C           -10.3538069390      -15.2070166424        1.6101998397  MEOH      1019            0.0000000000
     24978      1711  MEOH      LP1A          -11.6193263461      -14.0767693857        0.4135611648  MEOH      1019            0.0000000000
     24979      1711  MEOH      LP1B          -11.2496520094      -13.6846620607        0.0365441489  MEOH      1019            0.0000000000
     24980      1712  MEOH      C1            -27.6223345579       -7.1829013779      -34.4834382710  MEOH      1020            0.0000000000
     24981      1712  MEOH      DC1           -27.6314909562       -7.1866917841      -34.4976169995  MEOH      1020            0.0000000000
     24982      1712  MEOH      O1            -26.6317587860       -6.8768784693      -33.5049663793  MEOH      1020            0.0000000000
     24983      1712  MEOH      DO1           -26.6292593139       -6.8788540235      -33.5171576327  MEOH      1020            0.0000000000
     24984      1712  MEOH      HO1           -26.2859639820       -5.9910057874      -33.6961614282  MEOH      1020            0.0000000000
     24985      1712  MEOH      HO2           -27.0558366946       -7.0435181215      -32.6486433365  MEOH      1020            0.0000000000
     24986      1712  MEOH      H1A           -28.0121339928       -8.2087139398      -34.3099851408  MEOH      1020            0.0000000000
     24987      1712  MEOH      H1B           -27.1753964368       -7.1221515231      -35.4987592903  MEOH      1020            0.0000000000
     24988      1712  MEOH      H1C           -28.4620244958       -6.4608948338      -34.3942847021  MEOH      1020            0.0000000000
     24989      1712  MEOH      LP1A          -26.7807624968       -6.7243586763      -33.2274134891  MEOH      1020            0.0000000000
     24990      1712  MEOH      LP1B          -26.3181125689       -6.9882271714      -33.6132600405  MEOH      1020            0.0000000000
     24991      1713  MEOH      C1              5.6700627219       22.8679974222       30.1678611095  MEOH      1021            0.0000000000
     24992      1713  MEOH      DC1             5.6582367510       22.8670059004       30.1866106594  MEOH      1021            0.0000000000
     24993      1713  MEOH      O1              6.3338152373       23.1250524571       28.9315948192  MEOH      1021            0.0000000000
     24994      1713  MEOH      DO1             6.3269454732       23.1266044164       28.9521765815  MEOH      1021            0.0000000000
     24995      1713  MEOH      HO1             7.2923228851       23.0679710678       29.0690895685  MEOH      1021            0.0000000000
     24996      1713  MEOH      HO2             5.9233609768       22.5282433192       28.2864234056  MEOH      1021            0.0000000000
     24997      1713  MEOH      H1A             4.5727361762       22.9258635266       30.0040106696  MEOH      1021            0.0000000000
     24998      1713  MEOH      H1B             5.9654445532       23.6266653604       30.9238330226  MEOH      1021            0.0000000000
     24999      1713  MEOH      H1C             5.9300114625       21.8504442756       30.5302604030  MEOH      1021            0.0000000000
     25000      1713  MEOH      LP1A            6.3755796195       22.8264780521       28.7538054465  MEOH      1021            0.0000000000
     25001      1713  MEOH      LP1B            6.3932910861       23.4681970532       28.8967464391  MEOH      1021            0.0000000000
     25002      1714  MEOH      C1             11.7236754954        6.2692553860       -6.2894011336  MEOH      1022            0.0000000000
     25003      1714  MEOH      DC1            11.7409427859        6.2645153861       -6.2939916095  MEOH      1022            0.0000000000
     25004      1714  MEOH      O1             10.6064432556        6.7616467076       -5.5420584753  MEOH      1022            0.0000000000
     25005      1714  MEOH      DO1            10.6196546047        6.7389264327       -5.5344616901  MEOH      1022            0.0000000000
     25006      1714  MEOH      HO1            10.2276266612        7.5196916143       -6.0140393097  MEOH      1022            0.0000000000
     25007      1714  MEOH      HO2            10.0525510590        5.9856472016       -5.3633738335  MEOH      1022            0.0000000000
     25008      1714  MEOH      H1A            12.1754373367        5.4073941581       -5.7532785145  MEOH      1022            0.0000000000
     25009      1714  MEOH      H1B            12.5004042344        7.0566146483       -6.3946572800  MEOH      1022            0.0000000000
     25010      1714  MEOH      H1C            11.3928543478        5.9317321359       -7.2948644225  MEOH      1022            0.0000000000
     25011      1714  MEOH      LP1A           10.3141967156        6.5962060377       -5.6406553547  MEOH      1022            0.0000000000
     25012      1714  MEOH      LP1B           10.7135450206        7.0013024668       -5.3105539850  MEOH      1022            0.0000000000
     25013      1715  MEOH      C1             -5.1356033391       -4.7749929027       13.5819598050  MEOH      1023            0.0000000000
     25014      1715  MEOH      DC1            -5.1135747480       -4.7747490904       13.5666445530  MEOH      1023            0.0000000000
     25015      1715  MEOH      O1             -5.1686202228       -5.1272994704       12.1984531652  MEOH      1023            0.0000000000
     25016      1715  MEOH      DO1            -5.1394869400       -5.1250727015       12.1869275561  MEOH      1023            0.0000000000
     25017      1715  MEOH      HO1            -5.5605930131       -4.3973937307       11.6939782473  MEOH      1023            0.0000000000
     25018      1715  MEOH      HO2            -4.3507608408       -5.5997472405       11.9775478995  MEOH      1023            0.0000000000
     25019      1715  MEOH      H1A            -5.0735807351       -5.6964896558       14.1994692629  MEOH      1023            0.0000000000
     25020      1715  MEOH      H1B            -6.0657922000       -4.2408958076       13.8714593345  MEOH      1023            0.0000000000
     25021      1715  MEOH      H1C            -4.2605560821       -4.1239326777       13.7934636632  MEOH      1023            0.0000000000
     25022      1715  MEOH      LP1A           -4.8705941466       -5.0298223749       12.0429582336  MEOH      1023            0.0000000000
     25023      1715  MEOH      LP1B           -5.4673638038       -5.2939662123       12.1244635043  MEOH      1023            0.0000000000
     25024      1716  MEOH      C1              5.9126500481        7.0607661984       -5.9542665041  MEOH      1024            0.0000000000
     25025      1716  MEOH      DC1             5.9071472535        7.0540680923       -5.9486022086  MEOH      1024            0.0000000000
     25026      1716  MEOH      O1              5.7784372553        6.1285555042       -7.0302333641  MEOH      1024            0.0000000000
     25027      1716  MEOH      DO1             5.7793855417        6.1228805955       -7.0273098395  MEOH      1024            0.0000000000
     25028      1716  MEOH      HO1             6.3455707374        5.3650851311       -6.8395173344  MEOH      1024            0.0000000000
     25029      1716  MEOH      HO2             4.8268982654        6.0220612286       -7.1855798155  MEOH      1024            0.0000000000
     25030      1716  MEOH      H1A             5.4067425396        8.0123012271       -6.2243770037  MEOH      1024            0.0000000000
     25031      1716  MEOH      H1B             6.9854519301        7.2801264574       -5.7663883499  MEOH      1024            0.0000000000
     25032      1716  MEOH      H1C             5.4421833763        6.6503813844       -5.0352635576  MEOH      1024            0.0000000000
     25033      1716  MEOH      LP1A            5.5142896355        5.9082475599       -6.9654997203  MEOH      1024            0.0000000000
     25034      1716  MEOH      LP1B            6.0127015093        6.1998461091       -7.2803091704  MEOH      1024            0.0000000000
     25035      1717  MEOH      C1             27.8839151430      -33.6025353357      -30.0333405358  MEOH      1025            0.0000000000
     25036      1717  MEOH      DC1            27.8865646415      -33.6091539601      -30.0218065257  MEOH      1025            0.0000000000
     25037      1717  MEOH      O1             27.0539179772      -34.7132405384      -30.3685669822  MEOH      1025            0.0000000000
     25038      1717  MEOH      DO1            27.0448451082      -34.7182603585      -30.3581770562  MEOH      1025            0.0000000000
     25039      1717  MEOH      HO1            26.6785119990      -35.0496265626      -29.5398240812  MEOH      1025            0.0000000000
     25040      1717  MEOH      HO2            26.4858557715      -34.4136515664      -31.0955138705  MEOH      1025            0.0000000000
     25041      1717  MEOH      H1A            28.4609737663      -33.2863201540      -30.9285121986  MEOH      1025            0.0000000000
     25042      1717  MEOH      H1B            28.5921990195      -33.8888280263      -29.2266860583  MEOH      1025            0.0000000000
     25043      1717  MEOH      H1C            27.2490537547      -32.7558283227      -29.6951700881  MEOH      1025            0.0000000000
     25044      1717  MEOH      LP1A           26.7286204807      -34.6033945124      -30.4365036395  MEOH      1025            0.0000000000
     25045      1717  MEOH      LP1B           27.2425068051      -35.0080861193      -30.3679861324  MEOH      1025            0.0000000000
     25046      1718  MEOH      C1             24.3246219455       -4.1951393896      -32.6037561373  MEOH      1026            0.0000000000
     25047      1718  MEOH      DC1            24.3295070805       -4.1952990242      -32.5849408088  MEOH      1026            0.0000000000
     25048      1718  MEOH      O1             24.8964689249       -2.9998153106      -33.1416281327  MEOH      1026            0.0000000000
     25049      1718  MEOH      DO1            24.9018066698       -2.9923606460      -33.1168593255  MEOH      1026            0.0000000000
     25050      1718  MEOH      HO1            24.5708354832       -2.9407529042      -34.0534255301  MEOH      1026            0.0000000000
     25051      1718  MEOH      HO2            24.7247125958       -2.2951852171      -32.4975037687  MEOH      1026            0.0000000000
     25052      1718  MEOH      H1A            24.7865155803       -4.4329817638      -31.6217142466  MEOH      1026            0.0000000000
     25053      1718  MEOH      H1B            24.4966933050       -5.0432517738      -33.3004754736  MEOH      1026            0.0000000000
     25054      1718  MEOH      H1C            23.2263481209       -4.0727854843      -32.4891039291  MEOH      1026            0.0000000000
     25055      1718  MEOH      LP1A           24.6864526915       -2.7272702251      -33.0775004622  MEOH      1026            0.0000000000
     25056      1718  MEOH      LP1B           25.2075111815       -3.0702799590      -33.2858066608  MEOH      1026            0.0000000000
     25057      1719  MEOH      C1             33.0476630935      -21.5093643505       18.1890334901  MEOH      1027            0.0000000000
     25058      1719  MEOH      DC1            33.0408097001      -21.5071952355       18.1899147190  MEOH      1027            0.0000000000
     25059      1719  MEOH      O1             31.8728675197      -22.2556411763       18.5022603545  MEOH      1027            0.0000000000
     25060      1719  MEOH      DO1            31.8715886398      -22.2585753348       18.5028207859  MEOH      1027            0.0000000000
     25061      1719  MEOH      HO1            31.1383676931      -21.6223578846       18.5212939774  MEOH      1027            0.0000000000
     25062      1719  MEOH      HO2            31.8604876629      -22.9997957498       17.8801826183  MEOH      1027            0.0000000000
     25063      1719  MEOH      H1A            33.9270341492      -22.1844090834       18.2621235384  MEOH      1027            0.0000000000
     25064      1719  MEOH      H1B            33.2004728590      -20.6863986308       18.9195795870  MEOH      1027            0.0000000000
     25065      1719  MEOH      H1C            32.9858445211      -21.1047973168       17.1561612904  MEOH      1027            0.0000000000
     25066      1719  MEOH      LP1A           31.7246921065      -22.3745858382       18.2083280250  MEOH      1027            0.0000000000
     25067      1719  MEOH      LP1B           31.8301342705      -22.2715550633       18.8492770942  MEOH      1027            0.0000000000
     25068      1720  MEOH      C1            -36.2430654911       26.4208157802        6.2771514860  MEOH      1028            0.0000000000
     25069      1720  MEOH      DC1           -36.2435906367       26.4366789218        6.2852851852  MEOH      1028            0.0000000000
     25070      1720  MEOH      O1            -36.2305893529       27.6457315780        7.0095654390  MEOH      1028            0.0000000000
     25071      1720  MEOH      DO1           -36.2315088193       27.6592922829        7.0105668494  MEOH      1028            0.0000000000
     25072      1720  MEOH      HO1           -36.0813058725       28.3593991994        6.3698053522  MEOH      1028            0.0000000000
     25073      1720  MEOH      HO2           -37.0271963451       27.6369356650        7.5629549339  MEOH      1028            0.0000000000
     25074      1720  MEOH      H1A           -36.3459128998       25.5690447544        6.9830052464  MEOH      1028            0.0000000000
     25075      1720  MEOH      H1B           -35.2962008804       26.2974281983        5.7092219890  MEOH      1028            0.0000000000
     25076      1720  MEOH      H1C           -37.0982432014       26.4092325332        5.5680267338  MEOH      1028            0.0000000000
     25077      1720  MEOH      LP1A          -36.5551328710       27.7747261014        7.0326287818  MEOH      1028            0.0000000000
     25078      1720  MEOH      LP1B          -35.9057707545       27.7164091098        7.1190988340  MEOH      1028            0.0000000000
     25079      1721  MEOH      C1            -32.0958751896        4.4904100118        9.7320034112  MEOH      1029            0.0000000000
     25080      1721  MEOH      DC1           -32.0965321338        4.4646367971        9.7107213336  MEOH      1029            0.0000000000
     25081      1721  MEOH      O1            -32.2652890366        3.1405182337        9.2854104892  MEOH      1029            0.0000000000
     25082      1721  MEOH      DO1           -32.2680155199        3.1199471314        9.2794177312  MEOH      1029            0.0000000000
     25083      1721  MEOH      HO1           -32.3639226339        3.1882834587        8.3216211467  MEOH      1029            0.0000000000
     25084      1721  MEOH      HO2           -31.5295520417        2.6424889677        9.6747149013  MEOH      1029            0.0000000000
     25085      1721  MEOH      H1A           -32.0250268804        4.5140089388       10.8404909430  MEOH      1029            0.0000000000
     25086      1721  MEOH      H1B           -32.9586640252        5.1167266419        9.4195231653  MEOH      1029            0.0000000000
     25087      1721  MEOH      H1C           -31.1641686473        4.9293260621        9.3153541328  MEOH      1029            0.0000000000
     25088      1721  MEOH      LP1A          -31.9533632574        2.9964578383        9.2187103336  MEOH      1029            0.0000000000
     25089      1721  MEOH      LP1B          -32.6047156824        3.0551875934        9.2882799685  MEOH      1029            0.0000000000
     25090      1722  MEOH      C1            -17.2547027771        4.2657386895       -5.3700265070  MEOH      1030            0.0000000000
     25091      1722  MEOH      DC1           -17.2670784997        4.2582663610       -5.3583659209  MEOH      1030            0.0000000000
     25092      1722  MEOH      O1            -18.6741159595        4.3936475577       -5.3605354121  MEOH      1030            0.0000000000
     25093      1722  MEOH      DO1           -18.6921086965        4.3901815984       -5.3493807674  MEOH      1030            0.0000000000
     25094      1722  MEOH      HO1           -19.0112120496        3.6531272429       -5.8886413574  MEOH      1030            0.0000000000
     25095      1722  MEOH      HO2           -18.9303996065        4.5405087361       -4.4366033324  MEOH      1030            0.0000000000
     25096      1722  MEOH      H1A           -16.7800608626        5.1867254340       -4.9690034777  MEOH      1030            0.0000000000
     25097      1722  MEOH      H1B           -16.8902027118        4.0917209822       -6.4050040623  MEOH      1030            0.0000000000
     25098      1722  MEOH      H1C           -16.9421870999        3.4465725070       -4.6876617085  MEOH      1030            0.0000000000
     25099      1722  MEOH      LP1A          -18.8078605913        4.2229008890       -5.0858393099  MEOH      1030            0.0000000000
     25100      1722  MEOH      LP1B          -18.7779227071        4.5952874336       -5.6271165810  MEOH      1030            0.0000000000
     25101      1723  MEOH      C1            -13.4243684477      -35.7783568076       33.1257791905  MEOH      1031            0.0000000000
     25102      1723  MEOH      DC1           -13.4199685183      -35.7875135821       33.1326118579  MEOH      1031            0.0000000000
     25103      1723  MEOH      O1            -13.8503095974      -36.6199997570       34.2015730994  MEOH      1031            0.0000000000
     25104      1723  MEOH      DO1           -13.8589119601      -36.6298566501       34.2035772722  MEOH      1031            0.0000000000
     25105      1723  MEOH      HO1           -13.8761136950      -36.0542846347       34.9891012253  MEOH      1031            0.0000000000
     25106      1723  MEOH      HO2           -14.6471035923      -37.0768147126       33.8895804285  MEOH      1031            0.0000000000
     25107      1723  MEOH      H1A           -13.2125887598      -36.3927728572       32.2246891372  MEOH      1031            0.0000000000
     25108      1723  MEOH      H1B           -12.4789780153      -35.2514089805       33.3765458520  MEOH      1031            0.0000000000
     25109      1723  MEOH      H1C           -14.2012690377      -35.0206478255       32.8878221109  MEOH      1031            0.0000000000
     25110      1723  MEOH      LP1A          -14.1996377794      -36.6190323591       34.2232268607  MEOH      1031            0.0000000000
     25111      1723  MEOH      LP1B          -13.5729158411      -36.7706987887       34.3527104733  MEOH      1031            0.0000000000
     25112      1724  MEOH      C1            -32.1246312404       36.6023605651       10.6436703451  MEOH      1032            0.0000000000
     25113      1724  MEOH      DC1           -32.1210875052       36.6089955218       10.6529367004  MEOH      1032            0.0000000000
     25114      1724  MEOH      O1            -32.2557575896       36.7114954312        9.2264246873  MEOH      1032            0.0000000000
     25115      1724  MEOH      DO1           -32.2551465789       36.7149516171        9.2326196053  MEOH      1032            0.0000000000
     25116      1724  MEOH      HO1           -31.5729272252       36.1507174927        8.8262112477  MEOH      1032            0.0000000000
     25117      1724  MEOH      HO2           -33.1905869179       36.5342591434        9.0377942892  MEOH      1032            0.0000000000
     25118      1724  MEOH      H1A           -32.8504507232       37.2826525990       11.1383518870  MEOH      1032            0.0000000000
     25119      1724  MEOH      H1B           -31.0910302411       36.8653211235       10.9548643665  MEOH      1032            0.0000000000
     25120      1724  MEOH      H1C           -32.3530427828       35.5632545322       10.9636825661  MEOH      1032            0.0000000000
     25121      1724  MEOH      LP1A          -32.4799457497       36.4702093860        9.1080155944  MEOH      1032            0.0000000000
     25122      1724  MEOH      LP1B          -32.0623679444       36.9783212185        9.1085075794  MEOH      1032            0.0000000000
     25123      1725  MEOH      C1            -36.3007953995      -10.2761797805       -8.1717208346  MEOH      1033            0.0000000000
     25124      1725  MEOH      DC1           -36.3204099187      -10.2897707080       -8.1862467685  MEOH      1033            0.0000000000
     25125      1725  MEOH      O1            -35.4704421177      -10.1697300735       -7.0139043599  MEOH      1033            0.0000000000
     25126      1725  MEOH      DO1           -35.4900823652      -10.1821462995       -7.0229159035  MEOH      1033            0.0000000000
     25127      1725  MEOH      HO1           -34.5557680117      -10.3619673968       -7.2733578073  MEOH      1033            0.0000000000
     25128      1725  MEOH      HO2           -35.6675476401       -9.2969465051       -6.6393402711  MEOH      1033            0.0000000000
     25129      1725  MEOH      H1A           -37.3429309696      -10.0007665764       -7.9026074331  MEOH      1033            0.0000000000
     25130      1725  MEOH      H1B           -36.2712097753      -11.3163789651       -8.5608626439  MEOH      1033            0.0000000000
     25131      1725  MEOH      H1C           -35.9425758553       -9.5729118026       -8.9536504411  MEOH      1033            0.0000000000
     25132      1725  MEOH      LP1A          -35.3566989860       -9.8406797198       -6.9780105617  MEOH      1033            0.0000000000
     25133      1725  MEOH      LP1B          -35.4542306170      -10.4782590962       -6.8494445489  MEOH      1033            0.0000000000
     25134      1726  MEOH      C1             25.0336277828      -32.9978538251      -23.7555882324  MEOH      1034            0.0000000000
     25135      1726  MEOH      DC1            25.0310083020      -33.0119565521      -23.7410708091  MEOH      1034            0.0000000000
     25136      1726  MEOH      O1             24.2078719011      -31.8601395840      -24.0136442158  MEOH      1034            0.0000000000
     25137      1726  MEOH      DO1            24.2092949715      -31.8701048351      -24.0029121067  MEOH      1034            0.0000000000
     25138      1726  MEOH      HO1            23.3562077075      -31.9375702977      -23.5558532308  MEOH      1034            0.0000000000
     25139      1726  MEOH      HO2            24.7691074343      -31.0816265444      -23.8728176376  MEOH      1034            0.0000000000
     25140      1726  MEOH      H1A            25.9401175718      -32.9251437362      -24.3937970585  MEOH      1034            0.0000000000
     25141      1726  MEOH      H1B            24.4953836719      -33.9353214855      -24.0120422493  MEOH      1034            0.0000000000
     25142      1726  MEOH      H1C            25.3480679114      -33.0075525714      -22.6900581573  MEOH      1034            0.0000000000
     25143      1726  MEOH      LP1A           24.2700941488      -31.6107181226      -23.7761208980  MEOH      1034            0.0000000000
     25144      1726  MEOH      LP1B           24.0155806156      -31.9144960582      -24.3009931940  MEOH      1034            0.0000000000
     25145      1727  MEOH      C1            -19.3357917686       -4.8520291472       28.1743465458  MEOH      1035            0.0000000000
     25146      1727  MEOH      DC1           -19.3447047405       -4.8593127155       28.1662838242  MEOH      1035            0.0000000000
     25147      1727  MEOH      O1            -19.6306616077       -5.1314229832       26.8014911068  MEOH      1035            0.0000000000
     25148      1727  MEOH      DO1           -19.6512792381       -5.1437773477       26.8026995594  MEOH      1035            0.0000000000
     25149      1727  MEOH      HO1           -19.4491280283       -4.3145507659       26.3109145683  MEOH      1035            0.0000000000
     25150      1727  MEOH      HO2           -19.1056418902       -5.9180509746       26.5859204675  MEOH      1035            0.0000000000
     25151      1727  MEOH      H1A           -19.4215187628       -5.7797668937       28.7795527561  MEOH      1035            0.0000000000
     25152      1727  MEOH      H1B           -20.0406258390       -4.0925212382       28.5751927374  MEOH      1035            0.0000000000
     25153      1727  MEOH      H1C           -18.2991466148       -4.4641534528       28.2704728829  MEOH      1035            0.0000000000
     25154      1727  MEOH      LP1A          -19.3461648167       -5.2573657079       26.6411788927  MEOH      1035            0.0000000000
     25155      1727  MEOH      LP1B          -19.9674024513       -5.0629373435       26.7350432218  MEOH      1035            0.0000000000
     25156      1728  MEOH      C1            -10.3442768411       18.6271569679       26.0438017402  MEOH      1036            0.0000000000
     25157      1728  MEOH      DC1           -10.3534857261       18.6204253136       26.0461032997  MEOH      1036            0.0000000000
     25158      1728  MEOH      O1            -11.1188013390       18.1759026220       27.1540718809  MEOH      1036            0.0000000000
     25159      1728  MEOH      DO1           -11.1246956370       18.1692119317       27.1519005787  MEOH      1036            0.0000000000
     25160      1728  MEOH      HO1           -10.6895156715       18.4861076541       27.9667136558  MEOH      1036            0.0000000000
     25161      1728  MEOH      HO2           -12.0369173608       18.4247242831       26.9642015264  MEOH      1036            0.0000000000
     25162      1728  MEOH      H1A           -10.7967324662       18.2549650110       25.0998324317  MEOH      1036            0.0000000000
     25163      1728  MEOH      H1B            -9.3044397276       18.2441910057       26.1237820446  MEOH      1036            0.0000000000
     25164      1728  MEOH      H1C           -10.3313765118       19.7374346111       26.0058789490  MEOH      1036            0.0000000000
     25165      1728  MEOH      LP1A          -11.3651958042       18.4119539814       27.2319790258  MEOH      1036            0.0000000000
     25166      1728  MEOH      LP1B          -11.0097358987       17.8590922765       27.2552446770  MEOH      1036            0.0000000000
     25167      1729  MEOH      C1            -15.1891951844       11.2675027425      -26.8283499821  MEOH      1037            0.0000000000
     25168      1729  MEOH      DC1           -15.1940905219       11.2938463269      -26.8299474096  MEOH      1037            0.0000000000
     25169      1729  MEOH      O1            -15.2568620263       12.6335051008      -27.2372428182  MEOH      1037            0.0000000000
     25170      1729  MEOH      DO1           -15.2589202450       12.6528036982      -27.2366408122  MEOH      1037            0.0000000000
     25171      1729  MEOH      HO1           -15.3444816163       12.6053965014      -28.2028683741  MEOH      1037            0.0000000000
     25172      1729  MEOH      HO2           -15.9475331393       13.0383849995      -26.6895698484  MEOH      1037            0.0000000000
     25173      1729  MEOH      H1A           -14.9985517428       11.1999844383      -25.7359135500  MEOH      1037            0.0000000000
     25174      1729  MEOH      H1B           -14.3623180341       10.7523395876      -27.3623931494  MEOH      1037            0.0000000000
     25175      1729  MEOH      H1C           -16.1405894175       10.7422104411      -27.0590836193  MEOH      1037            0.0000000000
     25176      1729  MEOH      LP1A          -15.5894709173       12.7424551147      -27.2361382183  MEOH      1037            0.0000000000
     25177      1729  MEOH      LP1B          -14.9346751187       12.7569796803      -27.2959763245  MEOH      1037            0.0000000000
     25178      1730  MEOH      C1             22.9816847663        4.4081658769       34.8297869422  MEOH      1038            0.0000000000
     25179      1730  MEOH      DC1            22.9832115498        4.4140517600       34.8350416717  MEOH      1038            0.0000000000
     25180      1730  MEOH      O1             23.9054206089        5.1569959998       35.6255906244  MEOH      1038            0.0000000000
     25181      1730  MEOH      DO1            23.9037483818        5.1590530691       35.6330537527  MEOH      1038            0.0000000000
     25182      1730  MEOH      HO1            24.5692380895        5.5233215852       35.0205683786  MEOH      1038            0.0000000000
     25183      1730  MEOH      HO2            23.3653799781        5.7544858593       36.1662032275  MEOH      1038            0.0000000000
     25184      1730  MEOH      H1A            22.2202615819        3.9341763719       35.4854466737  MEOH      1038            0.0000000000
     25185      1730  MEOH      H1B            23.5150797684        3.6111270412       34.2689484018  MEOH      1038            0.0000000000
     25186      1730  MEOH      H1C            22.4670320454        5.0783485401       34.1084626219  MEOH      1038            0.0000000000
     25187      1730  MEOH      LP1A           23.7952423046        5.4876591990       35.6575685844  MEOH      1038            0.0000000000
     25188      1730  MEOH      LP1B           24.1642125435        4.9489333062       35.7362100174  MEOH      1038            0.0000000000
     25189      1731  MEOH      C1            -21.1209511426      -13.4764764748       24.7557719281  MEOH      1039            0.0000000000
     25190      1731  MEOH      DC1           -21.1286217047      -13.4786900641       24.7522629431  MEOH      1039            0.0000000000
     25191      1731  MEOH      O1            -22.4404723318      -14.0057825056       24.6890987467  MEOH      1039            0.0000000000
     25192      1731  MEOH      DO1           -22.4511370068      -14.0024352926       24.6898888463  MEOH      1039            0.0000000000
     25193      1731  MEOH      HO1           -22.5190645233      -14.6637523351       25.3974764502  MEOH      1039            0.0000000000
     25194      1731  MEOH      HO2           -23.0395657358      -13.2435517370       24.6576130309  MEOH      1039            0.0000000000
     25195      1731  MEOH      H1A           -20.9465217842      -12.8014566838       23.8907611288  MEOH      1039            0.0000000000
     25196      1731  MEOH      H1B           -20.3837944673      -14.3070907328       24.7241334789  MEOH      1039            0.0000000000
     25197      1731  MEOH      H1C           -20.9950962551      -12.8973065741       25.6954760163  MEOH      1039            0.0000000000
     25198      1731  MEOH      LP1A          -22.6569401618      -13.8127041201       24.8849620042  MEOH      1039            0.0000000000
     25199      1731  MEOH      LP1B          -22.4482545811      -14.2810607530       24.4730864251  MEOH      1039            0.0000000000
     25200      1732  MEOH      C1              8.5982770859        0.3452512003      -36.3547661911  MEOH      1040            0.0000000000
     25201      1732  MEOH      DC1             8.6154309714        0.3506580731      -36.3439490171  MEOH      1040            0.0000000000
     25202      1732  MEOH      O1              9.8414123028        0.9341511602      -35.9746470921  MEOH      1040            0.0000000000
     25203      1732  MEOH      DO1             9.8569131502        0.9352564410      -35.9669086797  MEOH      1040            0.0000000000
     25204      1732  MEOH      HO1             9.6914326005        1.8923912638      -35.9881375619  MEOH      1040            0.0000000000
     25205      1732  MEOH      HO2            10.4971961858        0.5696740741      -36.5894673540  MEOH      1040            0.0000000000
     25206      1732  MEOH      H1A             8.7227057565       -0.1829210195      -37.3242364651  MEOH      1040            0.0000000000
     25207      1732  MEOH      H1B             7.8229483803        1.1302986243      -36.4847159589  MEOH      1040            0.0000000000
     25208      1732  MEOH      H1C             8.2656862701       -0.3757761555      -35.5777051239  MEOH      1040            0.0000000000
     25209      1732  MEOH      LP1A            9.8562018148        0.9683969950      -35.6266406366  MEOH      1040            0.0000000000
     25210      1732  MEOH      LP1B           10.0398100405        0.9882479759      -36.2578640976  MEOH      1040            0.0000000000
     25211      1733  MEOH      C1             22.3678680565       34.5620339978       12.8097359220  MEOH      1041            0.0000000000
     25212      1733  MEOH      DC1            22.3790981630       34.5118848209       12.8245689840  MEOH      1041            0.0000000000
     25213      1733  MEOH      O1             22.1195665636       33.1629589124       12.9018018325  MEOH      1041            0.0000000000
     25214      1733  MEOH      DO1            22.1303307239       33.1233461469       12.8854359084  MEOH      1041            0.0000000000
     25215      1733  MEOH      HO1            21.2378176959       33.0731309440       12.5076573534  MEOH      1041            0.0000000000
     25216      1733  MEOH      HO2            22.9132166910       32.7160114182       12.5682491178  MEOH      1041            0.0000000000
     25217      1733  MEOH      H1A            23.1438063483       34.8991047898       13.5298914948  MEOH      1041            0.0000000000
     25218      1733  MEOH      H1B            21.4314399066       35.1117558579       13.0447448507  MEOH      1041            0.0000000000
     25219      1733  MEOH      H1C            22.6956982214       34.8231758936       11.7808271336  MEOH      1041            0.0000000000
     25220      1733  MEOH      LP1A           22.2405232883       33.0008625052       12.6161548029  MEOH      1041            0.0000000000
     25221      1733  MEOH      LP1B           21.9671081979       33.0883256210       13.2078840413  MEOH      1041            0.0000000000
     25222      1734  MEOH      C1            -23.6537333204        7.2567700457       23.7586507373  MEOH      1042            0.0000000000
     25223      1734  MEOH      DC1           -23.6694653155        7.2590642899       23.7567438215  MEOH      1042            0.0000000000
     25224      1734  MEOH      O1            -24.0257562402        6.5876291512       22.5527623596  MEOH      1042            0.0000000000
     25225      1734  MEOH      DO1           -24.0389557887        6.5877010316       22.5520904827  MEOH      1042            0.0000000000
     25226      1734  MEOH      HO1           -23.8309877704        5.6455897925       22.6773701034  MEOH      1042            0.0000000000
     25227      1734  MEOH      HO2           -24.9079491065        6.9084149654       22.3083606214  MEOH      1042            0.0000000000
     25228      1734  MEOH      H1A           -23.5916007085        8.3547319763       23.6007262649  MEOH      1042            0.0000000000
     25229      1734  MEOH      H1B           -22.6596280115        6.9016100759       24.1049699994  MEOH      1042            0.0000000000
     25230      1734  MEOH      H1C           -24.4043853560        7.0824877991       24.5589433213  MEOH      1042            0.0000000000
     25231      1734  MEOH      LP1A          -24.3614051314        6.4897436838       22.5688327396  MEOH      1042            0.0000000000
     25232      1734  MEOH      LP1B          -23.7557944558        6.5833695085       22.3300461941  MEOH      1042            0.0000000000
     25233      1735  MEOH      C1             28.5790914488       -2.8415739938      -36.7912346146  MEOH      1043            0.0000000000
     25234      1735  MEOH      DC1            28.5950641226       -2.8388760241      -36.7755763624  MEOH      1043            0.0000000000
     25235      1735  MEOH      O1             27.7410938173       -2.1721750218      -35.8481563341  MEOH      1043            0.0000000000
     25236      1735  MEOH      DO1            27.7542303471       -2.1718534780      -35.8377582049  MEOH      1043            0.0000000000
     25237      1735  MEOH      HO1            27.0282341096       -1.7616589638      -36.3621676224  MEOH      1043            0.0000000000
     25238      1735  MEOH      HO2            27.5205562485       -2.8355977698      -35.1757476503  MEOH      1043            0.0000000000
     25239      1735  MEOH      H1A            29.4027393243       -3.3387319594      -36.2355736259  MEOH      1043            0.0000000000
     25240      1735  MEOH      H1B            28.9973629247       -2.1237685202      -37.5288830909  MEOH      1043            0.0000000000
     25241      1735  MEOH      H1C            28.0105814128       -3.6242532645      -37.3376140598  MEOH      1043            0.0000000000
     25242      1735  MEOH      LP1A           27.4934815826       -2.3905220999      -35.7319120452  MEOH      1043            0.0000000000
     25243      1735  MEOH      LP1B           27.8550540709       -1.8451067108      -35.7977640676  MEOH      1043            0.0000000000
     25244      1736  MEOH      C1             32.3132927866      -31.3858491933      -32.8430252902  MEOH      1044            0.0000000000
     25245      1736  MEOH      DC1            32.3133609855      -31.3852233313      -32.8479337327  MEOH      1044            0.0000000000
     25246      1736  MEOH      O1             32.2279267800      -31.5871405648      -31.4373968279  MEOH      1044            0.0000000000
     25247      1736  MEOH      DO1            32.2274661582      -31.5852522533      -31.4396507806  MEOH      1044            0.0000000000
     25248      1736  MEOH      HO1            31.2888290207      -31.7153917477      -31.2311275034  MEOH      1044            0.0000000000
     25249      1736  MEOH      HO2            32.8724392975      -32.2842957372      -31.2387054078  MEOH      1044            0.0000000000
     25250      1736  MEOH      H1A            33.3625204631      -31.1609932415      -33.1309177764  MEOH      1044            0.0000000000
     25251      1736  MEOH      H1B            31.6658846750      -30.5304201594      -33.1318589921  MEOH      1044            0.0000000000
     25252      1736  MEOH      H1C            31.9815675995      -32.2994012197      -33.3812651027  MEOH      1044            0.0000000000
     25253      1736  MEOH      LP1A           32.2609596526      -31.9275411634      -31.3629907676  MEOH      1044            0.0000000000
     25254      1736  MEOH      LP1B           32.1919223909      -31.2795196673      -31.2743843516  MEOH      1044            0.0000000000
     25255      1737  MEOH      C1             28.0799320004      -28.5595548995      -15.4042578949  MEOH      1045            0.0000000000
     25256      1737  MEOH      DC1            28.0734681387      -28.5655513019      -15.3817523117  MEOH      1045            0.0000000000
     25257      1737  MEOH      O1             28.4328997081      -28.2622946036      -16.7550889367  MEOH      1045            0.0000000000
     25258      1737  MEOH      DO1            28.4112514286      -28.2665123610      -16.7393363395  MEOH      1045            0.0000000000
     25259      1737  MEOH      HO1            28.1655712624      -28.9915009296      -17.3362030703  MEOH      1045            0.0000000000
     25260      1737  MEOH      HO2            28.1410858921      -27.3528542820      -16.9243904419  MEOH      1045            0.0000000000
     25261      1737  MEOH      H1A            28.5914367504      -27.8324541845      -14.7379183103  MEOH      1045            0.0000000000
     25262      1737  MEOH      H1B            28.4013429514      -29.5917010900      -15.1479568179  MEOH      1045            0.0000000000
     25263      1737  MEOH      H1C            26.9822166487      -28.4621404761      -15.2633592108  MEOH      1045            0.0000000000
     25264      1737  MEOH      LP1A           28.1720689362      -28.0892228941      -16.9116567871  MEOH      1045            0.0000000000
     25265      1737  MEOH      LP1B           28.7573306029      -28.3754549145      -16.8217172979  MEOH      1045            0.0000000000
     25266      1738  MEOH      C1              2.6859188403      -22.1639233066        2.1729953073  MEOH      1046            0.0000000000
     25267      1738  MEOH      DC1             2.6794155836      -22.1605681679        2.1792927416  MEOH      1046            0.0000000000
     25268      1738  MEOH      O1              3.5644621678      -21.0665464402        1.9188125183  MEOH      1046            0.0000000000
     25269      1738  MEOH      DO1             3.5564227257      -21.0638269475        1.9183797538  MEOH      1046            0.0000000000
     25270      1738  MEOH      HO1             3.9908946608      -20.8267807314        2.7564089213  MEOH      1046            0.0000000000
     25271      1738  MEOH      HO2             4.1167023040      -21.3512486977        1.1739128898  MEOH      1046            0.0000000000
     25272      1738  MEOH      H1A             2.1727280354      -22.4573246590        1.2323190368  MEOH      1046            0.0000000000
     25273      1738  MEOH      H1B             1.9242147763      -21.8764554384        2.9289649788  MEOH      1046            0.0000000000
     25274      1738  MEOH      H1C             3.2654475689      -23.0366748757        2.5428224988  MEOH      1046            0.0000000000
     25275      1738  MEOH      LP1A            3.8809320284      -21.1851531179        1.8278219510  MEOH      1046            0.0000000000
     25276      1738  MEOH      LP1B            3.3922040810      -20.7641650548        1.9561307346  MEOH      1046            0.0000000000
     25277      1739  MEOH      C1             17.2112692329      -25.7241270875       17.0717679367  MEOH      1047            0.0000000000
     25278      1739  MEOH      DC1            17.2150156194      -25.7171055187       17.0670894565  MEOH      1047            0.0000000000
     25279      1739  MEOH      O1             16.2297322595      -25.5142563238       16.0570706908  MEOH      1047            0.0000000000
     25280      1739  MEOH      DO1            16.2283155760      -25.5273046110       16.0562182895  MEOH      1047            0.0000000000
     25281      1739  MEOH      HO1            15.4957308563      -25.0386949599       16.4765743609  MEOH      1047            0.0000000000
     25282      1739  MEOH      HO2            16.7003162472      -25.0852687796       15.3253464268  MEOH      1047            0.0000000000
     25283      1739  MEOH      H1A            18.1087591176      -26.2135482932       16.6366819773  MEOH      1047            0.0000000000
     25284      1739  MEOH      H1B            16.8042067234      -26.3884553091       17.8637838001  MEOH      1047            0.0000000000
     25285      1739  MEOH      H1C            17.5031432974      -24.7477143728       17.5142029501  MEOH      1047            0.0000000000
     25286      1739  MEOH      LP1A           16.2921622180      -25.2127405535       15.8906653408  MEOH      1047            0.0000000000
     25287      1739  MEOH      LP1B           16.0093707743      -25.7859374230       16.0456603342  MEOH      1047            0.0000000000
     25288      1740  MEOH      C1             14.6419889757      -32.7291562332       -3.5869920764  MEOH      1048            0.0000000000
     25289      1740  MEOH      DC1            14.6422632246      -32.7077664336       -3.6043877792  MEOH      1048            0.0000000000
     25290      1740  MEOH      O1             15.7903437782      -33.5473440512       -3.7844605028  MEOH      1048            0.0000000000
     25291      1740  MEOH      DO1            15.7860116379      -33.5410095617       -3.7875813328  MEOH      1048            0.0000000000
     25292      1740  MEOH      HO1            15.8515999385      -33.8036628369       -4.7179744898  MEOH      1048            0.0000000000
     25293      1740  MEOH      HO2            16.5241328205      -33.1036959539       -3.3309960532  MEOH      1048            0.0000000000
     25294      1740  MEOH      H1A            14.4649877065      -32.5977936110       -2.4980772896  MEOH      1048            0.0000000000
     25295      1740  MEOH      H1B            13.7426509620      -33.2049590545       -4.0332249889  MEOH      1048            0.0000000000
     25296      1740  MEOH      H1C            14.8322208633      -31.7388809594       -4.0533478555  MEOH      1048            0.0000000000
     25297      1740  MEOH      LP1A           16.0684746140      -33.3477246208       -3.8572294603  MEOH      1048            0.0000000000
     25298      1740  MEOH      LP1B           15.7078497449      -33.8836795210       -3.7337339197  MEOH      1048            0.0000000000
     25299      1741  MEOH      C1             35.8709645573       12.6519773709      -12.7843043671  MEOH      1049            0.0000000000
     25300      1741  MEOH      DC1            35.8662464010       12.6529537060      -12.7906138986  MEOH      1049            0.0000000000
     25301      1741  MEOH      O1             36.1646730202       11.7860194423      -11.6937072873  MEOH      1049            0.0000000000
     25302      1741  MEOH      DO1            36.1655093811       11.7820329129      -11.7026320852  MEOH      1049            0.0000000000
     25303      1741  MEOH      HO1            37.0843987204       11.9623824811      -11.4409213786  MEOH      1049            0.0000000000
     25304      1741  MEOH      HO2            35.4565649133       11.9272502808      -11.0459907140  MEOH      1049            0.0000000000
     25305      1741  MEOH      H1A            34.8571654419       12.4011001075      -13.1632409751  MEOH      1049            0.0000000000
     25306      1741  MEOH      H1B            36.6124015570       12.5168991459      -13.6006045868  MEOH      1049            0.0000000000
     25307      1741  MEOH      H1C            35.8903839969       13.7106230286      -12.4478325874  MEOH      1049            0.0000000000
     25308      1741  MEOH      LP1A           36.0818622725       11.9418544091      -11.3914526873  MEOH      1049            0.0000000000
     25309      1741  MEOH      LP1B           36.2862402084       11.4802606093      -11.8130092352  MEOH      1049            0.0000000000
     25310      1742  MEOH      C1            -15.7497663742      -17.3158647017       15.3914574875  MEOH      1050            0.0000000000
     25311      1742  MEOH      DC1           -15.7389128955      -17.3019786064       15.3765091307  MEOH      1050            0.0000000000
     25312      1742  MEOH      O1            -15.2992385662      -18.5967955837       15.8274227868  MEOH      1050            0.0000000000
     25313      1742  MEOH      DO1           -15.2903210519      -18.5900119163       15.8111208491  MEOH      1050            0.0000000000
     25314      1742  MEOH      HO1           -14.4027066769      -18.4950313646       16.1834770175  MEOH      1050            0.0000000000
     25315      1742  MEOH      HO2           -15.9947867701      -18.9305917639       16.4153792541  MEOH      1050            0.0000000000
     25316      1742  MEOH      H1A           -16.7763668286      -17.4205405355       14.9798077850  MEOH      1050            0.0000000000
     25317      1742  MEOH      H1B           -15.1045633945      -16.9244370999       14.5760934292  MEOH      1050            0.0000000000
     25318      1742  MEOH      H1C           -15.7969978936      -16.6119560616       16.2497131676  MEOH      1050            0.0000000000
     25319      1742  MEOH      LP1A          -15.3915377848      -18.6490113984       16.1609709286  MEOH      1050            0.0000000000
     25320      1742  MEOH      LP1B          -15.1412835160      -18.7642479061       15.5637754430  MEOH      1050            0.0000000000
     25321      1743  MEOH      C1             19.3630815000       29.6768649068       28.2808205251  MEOH      1051            0.0000000000
     25322      1743  MEOH      DC1            19.3601845495       29.6647803452       28.2861441543  MEOH      1051            0.0000000000
     25323      1743  MEOH      O1             20.4273083062       30.5229525943       27.8402050172  MEOH      1051            0.0000000000
     25324      1743  MEOH      DO1            20.4204952018       30.5227842319       27.8381349318  MEOH      1051            0.0000000000
     25325      1743  MEOH      HO1            20.8814580976       30.0711529432       27.1118335167  MEOH      1051            0.0000000000
     25326      1743  MEOH      HO2            20.0305730591       31.3977867506       27.7054224416  MEOH      1051            0.0000000000
     25327      1743  MEOH      H1A            18.8716396410       30.1237053389       29.1714043385  MEOH      1051            0.0000000000
     25328      1743  MEOH      H1B            19.7675655517       28.6800900946       28.5585859406  MEOH      1051            0.0000000000
     25329      1743  MEOH      H1C            18.6137976555       29.5605482440       27.4688074991  MEOH      1051            0.0000000000
     25330      1743  MEOH      LP1A           20.3119533279       30.7409124948       27.5918369219  MEOH      1051            0.0000000000
     25331      1743  MEOH      LP1B           20.7180287762       30.4545122179       28.0226811066  MEOH      1051            0.0000000000
     25332      1744  MEOH      C1            -35.0313793581       -2.7309135508        0.5347981193  MEOH      1052            0.0000000000
     25333      1744  MEOH      DC1           -35.0310075278       -2.7293186527        0.5394662336  MEOH      1052            0.0000000000
     25334      1744  MEOH      O1            -34.5616897981       -1.4921333644        0.0022002089  MEOH      1052            0.0000000000
     25335      1744  MEOH      DO1           -34.5595284560       -1.4904974640        0.0056693661  MEOH      1052            0.0000000000
     25336      1744  MEOH      HO1           -33.6158104511       -1.5958614197       -0.1860888038  MEOH      1052            0.0000000000
     25337      1744  MEOH      HO2           -35.1760454019       -1.2647974725       -0.7131917007  MEOH      1052            0.0000000000
     25338      1744  MEOH      H1A           -36.1351813939       -2.7000339748        0.6572257204  MEOH      1052            0.0000000000
     25339      1744  MEOH      H1B           -34.5684481886       -2.9153745112        1.5277683543  MEOH      1052            0.0000000000
     25340      1744  MEOH      H1C           -34.7768265080       -3.5581692575       -0.1617446595  MEOH      1052            0.0000000000
     25341      1744  MEOH      LP1A          -34.5993986335       -1.4894531473       -0.3457521731  MEOH      1052            0.0000000000
     25342      1744  MEOH      LP1B          -34.4557749366       -1.2826825391        0.2618391773  MEOH      1052            0.0000000000
     25343      1745  MEOH      C1            -36.3715550605      -35.3828148523       13.6265178958  MEOH      1053            0.0000000000
     25344      1745  MEOH      DC1           -36.3565722647      -35.3906722883       13.6326652332  MEOH      1053            0.0000000000
     25345      1745  MEOH      O1            -36.3500685134      -34.2799377802       14.5306881812  MEOH      1053            0.0000000000
     25346      1745  MEOH      DO1           -36.3170566208      -34.2983366283       14.5415129133  MEOH      1053            0.0000000000
     25347      1745  MEOH      HO1           -35.6755717219      -33.6498340558       14.2324879541  MEOH      1053            0.0000000000
     25348      1745  MEOH      HO2           -37.2634332155      -33.9535492456       14.5190500816  MEOH      1053            0.0000000000
     25349      1745  MEOH      H1A           -37.3008490971      -35.9705939159       13.7854183879  MEOH      1053            0.0000000000
     25350      1745  MEOH      H1B           -35.4890506295      -36.0339982929       13.8039074558  MEOH      1053            0.0000000000
     25351      1745  MEOH      H1C           -36.3671612058      -35.0124908863       12.5790629537  MEOH      1053            0.0000000000
     25352      1745  MEOH      LP1A          -36.5777164106      -34.0353269280       14.4265634200  MEOH      1053            0.0000000000
     25353      1745  MEOH      LP1B          -36.1271753360      -34.3443119472       14.7927465679  MEOH      1053            0.0000000000
     25354      1746  MEOH      C1             16.6677401919       28.4887238921      -33.2444081037  MEOH      1054            0.0000000000
     25355      1746  MEOH      DC1            16.6705042065       28.5010830692      -33.2428984529  MEOH      1054            0.0000000000
     25356      1746  MEOH      O1             16.5895871407       29.2407807885      -32.0311712520  MEOH      1054            0.0000000000
     25357      1746  MEOH      DO1            16.6016505107       29.2595527850      -32.0369640844  MEOH      1054            0.0000000000
     25358      1746  MEOH      HO1            16.2303826709       30.1153924878      -32.2477965615  MEOH      1054            0.0000000000
     25359      1746  MEOH      HO2            16.0705032403       28.6806068690      -31.4331268688  MEOH      1054            0.0000000000
     25360      1746  MEOH      H1A            16.9442572004       27.4388437607      -33.0085881387  MEOH      1054            0.0000000000
     25361      1746  MEOH      H1B            17.4342989624       28.9136363752      -33.9271657721  MEOH      1054            0.0000000000
     25362      1746  MEOH      H1C            15.6772732376       28.4861271697      -33.7476868233  MEOH      1054            0.0000000000
     25363      1746  MEOH      LP1A           16.2803744723       29.1865522806      -31.8764237330  MEOH      1054            0.0000000000
     25364      1746  MEOH      LP1B           16.8899741228       29.4120247251      -31.9769202139  MEOH      1054            0.0000000000
     25365      1747  MEOH      C1            -11.9861088225      -18.5113093495       -9.6525673310  MEOH      1055            0.0000000000
     25366      1747  MEOH      DC1           -11.9909679706      -18.5218746267       -9.6481225243  MEOH      1055            0.0000000000
     25367      1747  MEOH      O1            -11.0809790089      -17.6049025020       -9.0215666346  MEOH      1055            0.0000000000
     25368      1747  MEOH      DO1           -11.0813095573      -17.6293500172       -9.0043983094  MEOH      1055            0.0000000000
     25369      1747  MEOH      HO1           -10.4264142353      -17.3454216162       -9.6887357495  MEOH      1055            0.0000000000
     25370      1747  MEOH      HO2           -11.6481320436      -16.8917108636       -8.6890081855  MEOH      1055            0.0000000000
     25371      1747  MEOH      H1A           -12.8827328820      -18.6443497803       -9.0101604975  MEOH      1055            0.0000000000
     25372      1747  MEOH      H1B           -11.5022780202      -19.4939113284       -9.8389060209  MEOH      1055            0.0000000000
     25373      1747  MEOH      H1C           -12.3335308905      -18.0808531724      -10.6160642883  MEOH      1055            0.0000000000
     25374      1747  MEOH      LP1A          -11.1988897984      -17.2768435412       -9.0527814371  MEOH      1055            0.0000000000
     25375      1747  MEOH      LP1B          -10.8171787898      -17.7819633717       -8.8747371659  MEOH      1055            0.0000000000
     25376      1748  MEOH      C1            -18.1626928622       25.6530094644      -27.9910374951  MEOH      1056            0.0000000000
     25377      1748  MEOH      DC1           -18.1613771802       25.6521649144      -27.9976266728  MEOH      1056            0.0000000000
     25378      1748  MEOH      O1            -17.0012777697       26.2825547157      -27.4542645516  MEOH      1056            0.0000000000
     25379      1748  MEOH      DO1           -16.9981728039       26.2870569258      -27.4542488126  MEOH      1056            0.0000000000
     25380      1748  MEOH      HO1           -16.3604429527       26.3590555461      -28.1784042905  MEOH      1056            0.0000000000
     25381      1748  MEOH      HO2           -17.3177936068       27.0611404661      -26.9699898836  MEOH      1056            0.0000000000
     25382      1748  MEOH      H1A           -18.8701668239       25.4103436120      -27.1695054641  MEOH      1056            0.0000000000
     25383      1748  MEOH      H1B           -17.8651126766       24.7069875167      -28.4918463484  MEOH      1056            0.0000000000
     25384      1748  MEOH      H1C           -18.6628795828       26.3284726813      -28.7175935417  MEOH      1056            0.0000000000
     25385      1748  MEOH      LP1A          -17.0298411512       26.6302620577      -27.4822598640  MEOH      1056            0.0000000000
     25386      1748  MEOH      LP1B          -16.7827914188       26.0411467781      -27.3258670356  MEOH      1056            0.0000000000
     25387      1749  MEOH      C1             -1.7451281232       11.2608593584      -31.5008233664  MEOH      1057            0.0000000000
     25388      1749  MEOH      DC1            -1.7528218553       11.2687280979      -31.4876882127  MEOH      1057            0.0000000000
     25389      1749  MEOH      O1             -1.5620166390       12.0592360197      -32.6680192457  MEOH      1057            0.0000000000
     25390      1749  MEOH      DO1            -1.5737260550       12.0683002838      -32.6658712631  MEOH      1057            0.0000000000
     25391      1749  MEOH      HO1            -1.9577444832       11.5668429402      -33.4041228583  MEOH      1057            0.0000000000
     25392      1749  MEOH      HO2            -1.8504848001       12.9566420393      -32.4392211751  MEOH      1057            0.0000000000
     25393      1749  MEOH      H1A            -1.1253519267       11.6677259202      -30.6733826936  MEOH      1057            0.0000000000
     25394      1749  MEOH      H1B            -1.4248789063       10.2154759471      -31.6981428130  MEOH      1057            0.0000000000
     25395      1749  MEOH      H1C            -2.8153702227       11.2745651391      -31.2029727315  MEOH      1057            0.0000000000
     25396      1749  MEOH      LP1A           -1.8322616496       12.2782309373      -32.7068632967  MEOH      1057            0.0000000000
     25397      1749  MEOH      LP1B           -1.2557041778       11.9822753762      -32.8188494001  MEOH      1057            0.0000000000
     25398      1750  MEOH      C1             -6.4758145558      -28.1448160261       29.6299272671  MEOH      1058            0.0000000000
     25399      1750  MEOH      DC1            -6.4680862497      -28.1336608981       29.6293895032  MEOH      1058            0.0000000000
     25400      1750  MEOH      O1             -6.3073674147      -29.4792530207       29.1534356522  MEOH      1058            0.0000000000
     25401      1750  MEOH      DO1            -6.3027955728      -29.4735653950       29.1560910953  MEOH      1058            0.0000000000
     25402      1750  MEOH      HO1            -5.7848280980      -29.9633728232       29.8118281487  MEOH      1058            0.0000000000
     25403      1750  MEOH      HO2            -7.1970051543      -29.7920176514       28.9262287433  MEOH      1058            0.0000000000
     25404      1750  MEOH      H1A            -7.0346120520      -27.5593061801       28.8688460766  MEOH      1058            0.0000000000
     25405      1750  MEOH      H1B            -5.4857327259      -27.6745352632       29.8112969869  MEOH      1058            0.0000000000
     25406      1750  MEOH      H1C            -7.0614506269      -28.1533017113       30.5740032101  MEOH      1058            0.0000000000
     25407      1750  MEOH      LP1A           -6.5728681570      -29.6796456764       29.2623031836  MEOH      1058            0.0000000000
     25408      1750  MEOH      LP1B           -6.0196630756      -29.5001633879       28.9552211980  MEOH      1058            0.0000000000
     25409      1751  MEOH      C1            -30.3542684653       32.6468708757       16.4937522262  MEOH      1059            0.0000000000
     25410      1751  MEOH      DC1           -30.3565330614       32.6532703526       16.4991530531  MEOH      1059            0.0000000000
     25411      1751  MEOH      O1            -30.6768863563       32.5267096174       17.8780716197  MEOH      1059            0.0000000000
     25412      1751  MEOH      DO1           -30.6740891339       32.5285085413       17.8814231007  MEOH      1059            0.0000000000
     25413      1751  MEOH      HO1           -30.7409175593       33.4214896880       18.2470819606  MEOH      1059            0.0000000000
     25414      1751  MEOH      HO2           -31.4269452013       31.9132932214       17.9231499294  MEOH      1059            0.0000000000
     25415      1751  MEOH      H1A           -30.1971671925       31.6385803377       16.0544455185  MEOH      1059            0.0000000000
     25416      1751  MEOH      H1B           -29.4196580459       33.2361607000       16.3772967902  MEOH      1059            0.0000000000
     25417      1751  MEOH      H1C           -31.1826455409       33.1444026486       15.9455054244  MEOH      1059            0.0000000000
     25418      1751  MEOH      LP1A          -31.0242992980       32.5185001793       17.9197471886  MEOH      1059            0.0000000000
     25419      1751  MEOH      LP1B          -30.3836595861       32.5033157445       18.0677312831  MEOH      1059            0.0000000000
     25420      1752  MEOH      C1             11.2182823109      -16.5632240322       36.0065328388  MEOH      1060            0.0000000000
     25421      1752  MEOH      DC1            11.2402367898      -16.5757427514       36.0020827685  MEOH      1060            0.0000000000
     25422      1752  MEOH      O1             12.2522177632      -17.1552913401       35.2125677585  MEOH      1060            0.0000000000
     25423      1752  MEOH      DO1            12.2783907093      -17.1656041480       35.2150027698  MEOH      1060            0.0000000000
     25424      1752  MEOH      HO1            11.7949047258      -17.8165023013       34.6698294684  MEOH      1060            0.0000000000
     25425      1752  MEOH      HO2            12.6999700322      -16.4113152738       34.7802281717  MEOH      1060            0.0000000000
     25426      1752  MEOH      H1A            11.6426487310      -15.7741115061       36.6634465051  MEOH      1060            0.0000000000
     25427      1752  MEOH      H1B            10.7408878020      -17.3357522424       36.6465450638  MEOH      1060            0.0000000000
     25428      1752  MEOH      H1C            10.4413966064      -16.1049758616       35.3578586399  MEOH      1060            0.0000000000
     25429      1752  MEOH      LP1A           12.2927152984      -16.9752443958       34.9151740002  MEOH      1060            0.0000000000
     25430      1752  MEOH      LP1B           12.3923593965      -17.4274904385       35.3821790006  MEOH      1060            0.0000000000
     25431      1753  MEOH      C1            -31.3996695092      -21.6173885892      -19.6343817171  MEOH      1061            0.0000000000
     25432      1753  MEOH      DC1           -31.4074517491      -21.6162440816      -19.6246268626  MEOH      1061            0.0000000000
     25433      1753  MEOH      O1            -32.1325772105      -22.5670013485      -18.8598473246  MEOH      1061            0.0000000000
     25434      1753  MEOH      DO1           -32.1412401590      -22.5684348169      -18.8505129311  MEOH      1061            0.0000000000
     25435      1753  MEOH      HO1           -32.2951471448      -22.1598887342      -17.9945552723  MEOH      1061            0.0000000000
     25436      1753  MEOH      HO2           -32.8613836182      -22.8660709136      -19.4257966298  MEOH      1061            0.0000000000
     25437      1753  MEOH      H1A           -31.0565970330      -22.0884981869      -20.5802559289  MEOH      1061            0.0000000000
     25438      1753  MEOH      H1B           -30.5102915814      -21.2719563166      -19.0651678318  MEOH      1061            0.0000000000
     25439      1753  MEOH      H1C           -32.0441263236      -20.7481617855      -19.8862570395  MEOH      1061            0.0000000000
     25440      1753  MEOH      LP1A          -32.4760589649      -22.5241666618      -18.9116688841  MEOH      1061            0.0000000000
     25441      1753  MEOH      LP1B          -31.9117633592      -22.7764154611      -18.6869688339  MEOH      1061            0.0000000000
     25442      1754  MEOH      C1             12.8757577267      -20.6277460439       -3.4916257393  MEOH      1062            0.0000000000
     25443      1754  MEOH      DC1            12.8796833166      -20.6338941179       -3.4991243503  MEOH      1062            0.0000000000
     25444      1754  MEOH      O1             13.4984588589      -19.5494900289       -4.1914087968  MEOH      1062            0.0000000000
     25445      1754  MEOH      DO1            13.5123874830      -19.5468726423       -4.1879951398  MEOH      1062            0.0000000000
     25446      1754  MEOH      HO1            13.7403848184      -19.8860447042       -5.0683938484  MEOH      1062            0.0000000000
     25447      1754  MEOH      HO2            12.8642462889      -18.8177680122       -4.1343359756  MEOH      1062            0.0000000000
     25448      1754  MEOH      H1A            12.5111722982      -20.2711666908       -2.5045848940  MEOH      1062            0.0000000000
     25449      1754  MEOH      H1B            13.6080959354      -21.4471633899       -3.3286626684  MEOH      1062            0.0000000000
     25450      1754  MEOH      H1C            12.0067291076      -21.0182411958       -4.0631358407  MEOH      1062            0.0000000000
     25451      1754  MEOH      LP1A           13.2570005938      -19.3622851528       -4.3621490691  MEOH      1062            0.0000000000
     25452      1754  MEOH      LP1B           13.8428178246      -19.5491725214       -4.1288244383  MEOH      1062            0.0000000000
     25453      1755  MEOH      C1            -13.0725856124      -31.5736316785       24.6616823180  MEOH      1063            0.0000000000
     25454      1755  MEOH      DC1           -13.0713768224      -31.5787324542       24.6501904480  MEOH      1063            0.0000000000
     25455      1755  MEOH      O1            -13.6668988107      -31.7612209253       23.3724211921  MEOH      1063            0.0000000000
     25456      1755  MEOH      DO1           -13.6709842924      -31.7706558339       23.3633004868  MEOH      1063            0.0000000000
     25457      1755  MEOH      HO1           -14.3438743813      -31.0722506679       23.2834039870  MEOH      1063            0.0000000000
     25458      1755  MEOH      HO2           -12.9288169036      -31.8035171435       22.7444513454  MEOH      1063            0.0000000000
     25459      1755  MEOH      H1A           -12.3043771200      -32.3565161646       24.8385115959  MEOH      1063            0.0000000000
     25460      1755  MEOH      H1B           -13.8401578861      -31.6288469205       25.4629969153  MEOH      1063            0.0000000000
     25461      1755  MEOH      H1C           -12.5986596456      -30.5704120576       24.7188274898  MEOH      1063            0.0000000000
     25462      1755  MEOH      LP1A          -13.4899837089      -31.5792226739       23.1314280734  MEOH      1063            0.0000000000
     25463      1755  MEOH      LP1B          -13.9362187041      -31.9835112359       23.3959544188  MEOH      1063            0.0000000000
     25464      1756  MEOH      C1            -24.2210080353      -33.9191070151        2.2301480784  MEOH      1064            0.0000000000
     25465      1756  MEOH      DC1           -24.2199276757      -33.9131410519        2.2272373858  MEOH      1064            0.0000000000
     25466      1756  MEOH      O1            -23.0273339163      -33.1344460987        2.2812700088  MEOH      1064            0.0000000000
     25467      1756  MEOH      DO1           -23.0292695805      -33.1313565141        2.2807953968  MEOH      1064            0.0000000000
     25468      1756  MEOH      HO1           -22.2837139753      -33.7480665898        2.3880374078  MEOH      1064            0.0000000000
     25469      1756  MEOH      HO2           -23.0622423081      -32.5470477787        1.5101379722  MEOH      1064            0.0000000000
     25470      1756  MEOH      H1A           -25.1044189796      -33.2480724445        2.1699923569  MEOH      1064            0.0000000000
     25471      1756  MEOH      H1B           -24.3089210094      -34.5461368362        3.1430697144  MEOH      1064            0.0000000000
     25472      1756  MEOH      H1C           -24.2042954334      -34.5791362658        1.3366140404  MEOH      1064            0.0000000000
     25473      1756  MEOH      LP1A          -22.9018867846      -33.0861629139        1.9581109903  MEOH      1064            0.0000000000
     25474      1756  MEOH      LP1B          -22.9590841421      -33.0417394387        2.6117960192  MEOH      1064            0.0000000000
     25475      1757  MEOH      C1            -10.5890329613      -22.0304531791        4.1416844574  MEOH      1065            0.0000000000
     25476      1757  MEOH      DC1           -10.5980893371      -22.0395818996        4.1428414606  MEOH      1065            0.0000000000
     25477      1757  MEOH      O1            -11.5985658336      -21.1026643911        4.5353386361  MEOH      1065            0.0000000000
     25478      1757  MEOH      DO1           -11.6097598554      -21.1035230534        4.5425895374  MEOH      1065            0.0000000000
     25479      1757  MEOH      HO1           -12.2962854282      -21.1488070680        3.8630602554  MEOH      1065            0.0000000000
     25480      1757  MEOH      HO2           -11.7775147968      -21.2689341593        5.4740780210  MEOH      1065            0.0000000000
     25481      1757  MEOH      H1A            -9.6782263919      -21.8850261434        4.7610416810  MEOH      1065            0.0000000000
     25482      1757  MEOH      H1B           -10.3070024710      -21.8550406511        3.0814909610  MEOH      1065            0.0000000000
     25483      1757  MEOH      H1C           -10.9642992046      -23.0678326456        4.2733662335  MEOH      1065            0.0000000000
     25484      1757  MEOH      LP1A          -11.8304169040      -21.2599094817        4.7451458395  MEOH      1065            0.0000000000
     25485      1757  MEOH      LP1B          -11.5299604559      -20.7869001411        4.4008535418  MEOH      1065            0.0000000000
     25486      1758  MEOH      C1             16.6215052786      -28.8265819980       29.3100852283  MEOH      1066            0.0000000000
     25487      1758  MEOH      DC1            16.6146450137      -28.8073495996       29.3143503327  MEOH      1066            0.0000000000
     25488      1758  MEOH      O1             16.0448657270      -27.6916625943       29.9637159017  MEOH      1066            0.0000000000
     25489      1758  MEOH      DO1            16.0362145727      -27.6797003676       29.9646136832  MEOH      1066            0.0000000000
     25490      1758  MEOH      HO1            15.4495636972      -28.0347418570       30.6484144578  MEOH      1066            0.0000000000
     25491      1758  MEOH      HO2            16.7884319127      -27.1173330101       30.2048690842  MEOH      1066            0.0000000000
     25492      1758  MEOH      H1A            17.2689670420      -28.4902340691       28.4722401733  MEOH      1066            0.0000000000
     25493      1758  MEOH      H1B            15.8338610464      -29.4749552673       28.8701424284  MEOH      1066            0.0000000000
     25494      1758  MEOH      H1C            17.2163542811      -29.4282898778       30.0301014039  MEOH      1066            0.0000000000
     25495      1758  MEOH      LP1A           16.2474181374      -27.5918132274       30.2311156492  MEOH      1066            0.0000000000
     25496      1758  MEOH      LP1B           15.7518013271      -27.5946427228       29.7987904578  MEOH      1066            0.0000000000
     25497      1759  MEOH      C1            -15.5694728228      -24.9012325613       28.1596566012  MEOH      1067            0.0000000000
     25498      1759  MEOH      DC1           -15.5726682657      -24.9074750330       28.1608956220  MEOH      1067            0.0000000000
     25499      1759  MEOH      O1            -16.0972398364      -26.0582263265       28.8055304854  MEOH      1067            0.0000000000
     25500      1759  MEOH      DO1           -16.1014693767      -26.0635680607       28.8067089374  MEOH      1067            0.0000000000
     25501      1759  MEOH      HO1           -15.3476184694      -26.6416249458       29.0020345796  MEOH      1067            0.0000000000
     25502      1759  MEOH      HO2           -16.6667947429      -25.7230616100       29.5155810620  MEOH      1067            0.0000000000
     25503      1759  MEOH      H1A           -16.4101770572      -24.2499226876       27.8382023451  MEOH      1067            0.0000000000
     25504      1759  MEOH      H1B           -14.9824824244      -25.1935495669       27.2628210297  MEOH      1067            0.0000000000
     25505      1759  MEOH      H1C           -14.9214482351      -24.3263792840       28.8553065447  MEOH      1067            0.0000000000
     25506      1759  MEOH      LP1A          -16.1096672469      -26.0069762506       29.1515348050  MEOH      1067            0.0000000000
     25507      1759  MEOH      LP1B          -16.1839877273      -26.2993237410       28.5671047315  MEOH      1067            0.0000000000
     25508      1760  MEOH      C1             33.9039170692        3.3838316861       21.9427566077  MEOH      1068            0.0000000000
     25509      1760  MEOH      DC1            33.9153228452        3.3884451064       21.9408335852  MEOH      1068            0.0000000000
     25510      1760  MEOH      O1             35.0319685237        3.3462680226       21.0664171113  MEOH      1068            0.0000000000
     25511      1760  MEOH      DO1            35.0409898215        3.3491621433       21.0619286386  MEOH      1068            0.0000000000
     25512      1760  MEOH      HO1            35.7126766044        3.9279340861       21.4395137476  MEOH      1068            0.0000000000
     25513      1760  MEOH      HO2            35.2195548229        2.4063345616       20.9172981347  MEOH      1068            0.0000000000
     25514      1760  MEOH      H1A            33.0866306540        2.7545363900       21.5300201946  MEOH      1068            0.0000000000
     25515      1760  MEOH      H1B            33.5368370299        4.4272476698       22.0469503200  MEOH      1068            0.0000000000
     25516      1760  MEOH      H1C            34.1857675741        2.9909679423       22.9430262583  MEOH      1068            0.0000000000
     25517      1760  MEOH      LP1A           35.2470630658        3.0862355391       21.1592473080  MEOH      1068            0.0000000000
     25518      1760  MEOH      LP1B           35.0002974398        3.5926891492       20.8198941492  MEOH      1068            0.0000000000
     25519      1761  MEOH      C1            -33.1071554062       24.9629893559        1.6922052872  MEOH      1069            0.0000000000
     25520      1761  MEOH      DC1           -33.1088428181       24.9623782885        1.7036626620  MEOH      1069            0.0000000000
     25521      1761  MEOH      O1            -32.4381020602       24.4336856932        2.8386319713  MEOH      1069            0.0000000000
     25522      1761  MEOH      DO1           -32.4353749213       24.4415243435        2.8476220888  MEOH      1069            0.0000000000
     25523      1761  MEOH      HO1           -32.1088147486       25.1794841490        3.3642311822  MEOH      1069            0.0000000000
     25524      1761  MEOH      HO2           -33.0294615620       23.7666327904        3.2210379918  MEOH      1069            0.0000000000
     25525      1761  MEOH      H1A           -33.3615129961       24.1351521999        0.9962822597  MEOH      1069            0.0000000000
     25526      1761  MEOH      H1B           -32.4473952313       25.6797430779        1.1580689622  MEOH      1069            0.0000000000
     25527      1761  MEOH      H1C           -34.0426651848       25.4761416994        2.0017487059  MEOH      1069            0.0000000000
     25528      1761  MEOH      LP1A          -32.6658872939       24.3904637581        3.1008260818  MEOH      1069            0.0000000000
     25529      1761  MEOH      LP1B          -32.1005772739       24.3775683144        2.7649579698  MEOH      1069            0.0000000000
     25530      1762  MEOH      C1             -4.9759209048       30.4595880409      -13.6252579797  MEOH      1070            0.0000000000
     25531      1762  MEOH      DC1            -4.9703820677       30.4710418673      -13.6431499114  MEOH      1070            0.0000000000
     25532      1762  MEOH      O1             -5.2571778112       31.5279970273      -14.5326197777  MEOH      1070            0.0000000000
     25533      1762  MEOH      DO1            -5.2426859489       31.5325420994      -14.5557059591  MEOH      1070            0.0000000000
     25534      1762  MEOH      HO1            -6.2137366431       31.6708074293      -14.4584551561  MEOH      1070            0.0000000000
     25535      1762  MEOH      HO2            -4.6324128882       32.2332406801      -14.3019681331  MEOH      1070            0.0000000000
     25536      1762  MEOH      H1A            -3.9270866437       30.1084465401      -13.7299830445  MEOH      1070            0.0000000000
     25537      1762  MEOH      H1B            -5.6626058743       29.6125853691      -13.8382632103  MEOH      1070            0.0000000000
     25538      1762  MEOH      H1C            -5.1237350707       30.7913427199      -12.5753004539  MEOH      1070            0.0000000000
     25539      1762  MEOH      LP1A           -5.2239544747       31.8357134280      -14.3691975436  MEOH      1070            0.0000000000
     25540      1762  MEOH      LP1B           -5.3263886261       31.3997187421      -14.8508249704  MEOH      1070            0.0000000000
     25541      1763  MEOH      C1             -3.3874683735      -31.4213849080       36.7031688766  MEOH      1071            0.0000000000
     25542      1763  MEOH      DC1            -3.3841037728      -31.4234896319       36.7013134349  MEOH      1071            0.0000000000
     25543      1763  MEOH      O1             -1.9889956956      -31.5932693684       36.9207651315  MEOH      1071            0.0000000000
     25544      1763  MEOH      DO1            -1.9884944803      -31.5942450945       36.9271633918  MEOH      1071            0.0000000000
     25545      1763  MEOH      HO1            -1.7504351653      -32.4805192437       36.6096758644  MEOH      1071            0.0000000000
     25546      1763  MEOH      HO2            -1.5669998982      -30.8186827224       36.5172368482  MEOH      1071            0.0000000000
     25547      1763  MEOH      H1A            -3.7103613888      -30.4404991621       37.1129544970  MEOH      1071            0.0000000000
     25548      1763  MEOH      H1B            -3.9551185408      -32.2283698664       37.2139227943  MEOH      1071            0.0000000000
     25549      1763  MEOH      H1C            -3.6067259933      -31.4422390777       35.6142188312  MEOH      1071            0.0000000000
     25550      1763  MEOH      LP1A           -1.8097630013      -31.4809254858       36.6419202045  MEOH      1071            0.0000000000
     25551      1763  MEOH      LP1B           -1.9327738691      -31.7238997608       37.2405694574  MEOH      1071            0.0000000000
     25552      1764  MEOH      C1             -1.6865566863      -18.9740020984        7.8273805768  MEOH      1072            0.0000000000
     25553      1764  MEOH      DC1            -1.6904226372      -18.9831813047        7.8350666247  MEOH      1072            0.0000000000
     25554      1764  MEOH      O1             -1.3843085267      -17.8171844236        7.0516525038  MEOH      1072            0.0000000000
     25555      1764  MEOH      DO1            -1.3774937051      -17.8205714935        7.0619465264  MEOH      1072            0.0000000000
     25556      1764  MEOH      HO1            -2.2091275666      -17.3246003660        6.9177327609  MEOH      1072            0.0000000000
     25557      1764  MEOH      HO2            -0.5965483082      -17.4117783434        7.4465952210  MEOH      1072            0.0000000000
     25558      1764  MEOH      H1A            -0.8341651095      -19.6834657810        7.7609660926  MEOH      1072            0.0000000000
     25559      1764  MEOH      H1B            -2.5973879355      -19.4721425526        7.4316994888  MEOH      1072            0.0000000000
     25560      1764  MEOH      H1C            -1.8530894648      -18.6952918659        8.8898816085  MEOH      1072            0.0000000000
     25561      1764  MEOH      LP1A           -1.2966195588      -17.5515519642        7.2620094420  MEOH      1072            0.0000000000
     25562      1764  MEOH      LP1B           -1.4101833834      -17.8916139182        6.7106382195  MEOH      1072            0.0000000000
     25563      1765  MEOH      C1             19.7453380082       -4.3486614377        4.9991093303  MEOH      1073            0.0000000000
     25564      1765  MEOH      DC1            19.7411142156       -4.3623202456        4.9831337045  MEOH      1073            0.0000000000
     25565      1765  MEOH      O1             19.2558599091       -4.7895644335        3.7409002828  MEOH      1073            0.0000000000
     25566      1765  MEOH      DO1            19.2676793218       -4.8031523131        3.7175533337  MEOH      1073            0.0000000000
     25567      1765  MEOH      HO1            18.8306305511       -4.0061944623        3.3582627494  MEOH      1073            0.0000000000
     25568      1765  MEOH      HO2            20.0143424208       -5.2072518398        3.3037029473  MEOH      1073            0.0000000000
     25569      1765  MEOH      H1A            20.1919915766       -5.1921452164        5.5677539528  MEOH      1073            0.0000000000
     25570      1765  MEOH      H1B            18.9160243114       -3.9164313474        5.5988900750  MEOH      1073            0.0000000000
     25571      1765  MEOH      H1C            20.5204267098       -3.5666602042        4.8506755891  MEOH      1073            0.0000000000
     25572      1765  MEOH      LP1A           19.5012610965       -4.7462505252        3.4951317686  MEOH      1073            0.0000000000
     25573      1765  MEOH      LP1B           18.9321223196       -4.9176971873        3.7766210126  MEOH      1073            0.0000000000
     25574      1766  MEOH      C1             30.1338680474      -29.4162425440       14.9188302554  MEOH      1074            0.0000000000
     25575      1766  MEOH      DC1            30.1427701267      -29.4199466330       14.9453504667  MEOH      1074            0.0000000000
     25576      1766  MEOH      O1             30.5697059411      -29.9744107677       16.1645313419  MEOH      1074            0.0000000000
     25577      1766  MEOH      DO1            30.5872259143      -29.9713340005       16.1842146306  MEOH      1074            0.0000000000
     25578      1766  MEOH      HO1            29.8046949681      -29.9011505126       16.7563853325  MEOH      1074            0.0000000000
     25579      1766  MEOH      HO2            30.8918557574      -30.8620167319       15.9425512781  MEOH      1074            0.0000000000
     25580      1766  MEOH      H1A            30.9308033817      -29.5120297257       14.1506897150  MEOH      1074            0.0000000000
     25581      1766  MEOH      H1B            29.8797982174      -28.3423957193       15.0477586027  MEOH      1074            0.0000000000
     25582      1766  MEOH      H1C            29.2360637912      -29.9537907452       14.5455871024  MEOH      1074            0.0000000000
     25583      1766  MEOH      LP1A           30.5079436753      -30.3188825929       16.1694895805  MEOH      1074            0.0000000000
     25584      1766  MEOH      LP1B           30.7146121529      -29.7253059029       16.3631489546  MEOH      1074            0.0000000000
     25585      1767  MEOH      C1             33.1512598945        0.0969353708      -22.7931620493  MEOH      1075            0.0000000000
     25586      1767  MEOH      DC1            33.1383719685        0.1042580907      -22.8101165252  MEOH      1075            0.0000000000
     25587      1767  MEOH      O1             32.2509878915       -0.7231265044      -23.5407307278  MEOH      1075            0.0000000000
     25588      1767  MEOH      DO1            32.2496702606       -0.7213479464      -23.5573419342  MEOH      1075            0.0000000000
     25589      1767  MEOH      HO1            31.4029058434       -0.7191105125      -23.0699433964  MEOH      1075            0.0000000000
     25590      1767  MEOH      HO2            32.3285329162       -0.4525646968      -24.4689995892  MEOH      1075            0.0000000000
     25591      1767  MEOH      H1A            34.1915283435       -0.0705555997      -23.1454535909  MEOH      1075            0.0000000000
     25592      1767  MEOH      H1B            33.1065197672       -0.1654139311      -21.7145091091  MEOH      1075            0.0000000000
     25593      1767  MEOH      H1C            32.9076309268        1.1736062026      -22.9186445026  MEOH      1075            0.0000000000
     25594      1767  MEOH      LP1A           32.0846029817       -0.5302450517      -23.7807574076  MEOH      1075            0.0000000000
     25595      1767  MEOH      LP1B           32.2748082232       -1.0554876346      -23.4336388470  MEOH      1075            0.0000000000
     25596      1768  MEOH      C1            -29.3289858281       36.5807965770      -35.2905759115  MEOH      1076            0.0000000000
     25597      1768  MEOH      DC1           -29.3556000952       36.5853665432      -35.3155778573  MEOH      1076            0.0000000000
     25598      1768  MEOH      O1            -27.9418567854       36.6156311300      -34.9896296621  MEOH      1076            0.0000000000
     25599      1768  MEOH      DO1           -27.9573146449       36.6140332060      -35.0141200947  MEOH      1076            0.0000000000
     25600      1768  MEOH      HO1           -27.8436980777       36.7225634158      -34.0305517949  MEOH      1076            0.0000000000
     25601      1768  MEOH      HO2           -27.5815054967       37.3064882685      -35.5673522279  MEOH      1076            0.0000000000
     25602      1768  MEOH      H1A           -29.5092153892       37.4104739529      -36.0071467439  MEOH      1076            0.0000000000
     25603      1768  MEOH      H1B           -29.9431915147       36.7471155988      -34.3798562195  MEOH      1076            0.0000000000
     25604      1768  MEOH      H1C           -29.5911732376       35.5999078900      -35.7416148771  MEOH      1076            0.0000000000
     25605      1768  MEOH      LP1A          -27.8233732217       36.2911277709      -34.9334227667  MEOH      1076            0.0000000000
     25606      1768  MEOH      LP1B          -27.8239903596       36.9447689332      -35.0062372571  MEOH      1076            0.0000000000
     25607      1769  MEOH      C1             12.1875801197      -18.4456475888      -32.9282654101  MEOH      1077            0.0000000000
     25608      1769  MEOH      DC1            12.1934560315      -18.4638983241      -32.9149705685  MEOH      1077            0.0000000000
     25609      1769  MEOH      O1             12.8869765378      -19.5614799760      -32.3853427573  MEOH      1077            0.0000000000
     25610      1769  MEOH      DO1            12.9040709536      -19.5702251731      -32.3815631146  MEOH      1077            0.0000000000
     25611      1769  MEOH      HO1            12.7720394053      -19.5201438114      -31.4230638072  MEOH      1077            0.0000000000
     25612      1769  MEOH      HO2            12.5572327604      -20.3305203809      -32.8760013931  MEOH      1077            0.0000000000
     25613      1769  MEOH      H1A            12.2960182668      -18.4341384545      -34.0339008426  MEOH      1077            0.0000000000
     25614      1769  MEOH      H1B            12.5874090854      -17.4967802872      -32.5110021326  MEOH      1077            0.0000000000
     25615      1769  MEOH      H1C            11.1051123366      -18.5207611696      -32.6896392414  MEOH      1077            0.0000000000
     25616      1769  MEOH      LP1A           12.6749954793      -19.8395425770      -32.3696832312  MEOH      1077            0.0000000000
     25617      1769  MEOH      LP1B           13.2196158255      -19.4741635745      -32.3203277565  MEOH      1077            0.0000000000
     25618      1770  MEOH      C1             19.0250519915       11.6710160294       35.9993546450  MEOH      1078            0.0000000000
     25619      1770  MEOH      DC1            19.0249643598       11.6792234246       35.9893928675  MEOH      1078            0.0000000000
     25620      1770  MEOH      O1             17.7148954187       11.9777071494       35.5148689253  MEOH      1078            0.0000000000
     25621      1770  MEOH      DO1            17.7114454148       11.9886415755       35.5096897732  MEOH      1078            0.0000000000
     25622      1770  MEOH      HO1            17.1022207882       11.7950799699       36.2443736280  MEOH      1078            0.0000000000
     25623      1770  MEOH      HO2            17.7746868776       12.8588949794       35.1138290398  MEOH      1078            0.0000000000
     25624      1770  MEOH      H1A            19.7453369697       11.6121791287       35.1555248225  MEOH      1078            0.0000000000
     25625      1770  MEOH      H1B            19.0125893395       10.7025082864       36.5435590514  MEOH      1078            0.0000000000
     25626      1770  MEOH      H1C            19.3669784879       12.4744460861       36.6863098225  MEOH      1078            0.0000000000
     25627      1770  MEOH      LP1A           17.6408902955       12.3144974098       35.5748319327  MEOH      1078            0.0000000000
     25628      1770  MEOH      LP1B           17.5740244767       11.6952404843       35.3636473634  MEOH      1078            0.0000000000
     25629      1771  MEOH      C1             -3.9041739171      -13.2356132338      -35.1170348206  MEOH      1079            0.0000000000
     25630      1771  MEOH      DC1            -3.8850013250      -13.2435890790      -35.1056014767  MEOH      1079            0.0000000000
     25631      1771  MEOH      O1             -2.6897231977      -13.0508960876      -34.3815169993  MEOH      1079            0.0000000000
     25632      1771  MEOH      DO1            -2.6909088179      -13.0558688491      -34.3664322168  MEOH      1079            0.0000000000
     25633      1771  MEOH      HO1            -2.4019302105      -12.1344938510      -34.5167284536  MEOH      1079            0.0000000000
     25634      1771  MEOH      HO2            -2.8373317418      -13.4137236848      -33.4941231445  MEOH      1079            0.0000000000
     25635      1771  MEOH      H1A            -4.2224447017      -14.2993997392      -35.0798463933  MEOH      1079            0.0000000000
     25636      1771  MEOH      H1B            -3.7524955117      -12.9493102755      -36.1797414016  MEOH      1079            0.0000000000
     25637      1771  MEOH      H1C            -4.7232329953      -12.6104003557      -34.7016168558  MEOH      1079            0.0000000000
     25638      1771  MEOH      LP1A           -2.7620420564      -12.9475482601      -34.0550369704  MEOH      1079            0.0000000000
     25639      1771  MEOH      LP1B           -2.4148197574      -13.1342640786      -34.5814616830  MEOH      1079            0.0000000000
     25640      1772  MEOH      C1             26.5322872128       -2.5705544768      -15.1380105163  MEOH      1080            0.0000000000
     25641      1772  MEOH      DC1            26.5425790607       -2.5822045468      -15.1280879158  MEOH      1080            0.0000000000
     25642      1772  MEOH      O1             27.8251399210       -3.1702432738      -15.1696450455  MEOH      1080            0.0000000000
     25643      1772  MEOH      DO1            27.8283040469       -3.1863595118      -15.1482483627  MEOH      1080            0.0000000000
     25644      1772  MEOH      HO1            27.9487904760       -3.4632638890      -16.0860234936  MEOH      1080            0.0000000000
     25645      1772  MEOH      HO2            28.4200028354       -2.4956578632      -14.8063646624  MEOH      1080            0.0000000000
     25646      1772  MEOH      H1A            26.3093783067       -2.1559122765      -14.1316783308  MEOH      1080            0.0000000000
     25647      1772  MEOH      H1B            25.7750624202       -3.3567559247      -15.3449377922  MEOH      1080            0.0000000000
     25648      1772  MEOH      H1C            26.4394621764       -1.7666048617      -15.8991737899  MEOH      1080            0.0000000000
     25649      1772  MEOH      LP1A           28.0675703073       -2.9283410530      -15.2418310785  MEOH      1080            0.0000000000
     25650      1772  MEOH      LP1B           27.8011716751       -3.5105875980      -15.0915984946  MEOH      1080            0.0000000000
     25651      1773  MEOH      C1            -18.3738593605       -2.5850849003        2.0524746391  MEOH      1081            0.0000000000
     25652      1773  MEOH      DC1           -18.3821039441       -2.5932010245        2.0428656786  MEOH      1081            0.0000000000
     25653      1773  MEOH      O1            -18.7068073512       -3.9697036469        2.0556720686  MEOH      1081            0.0000000000
     25654      1773  MEOH      DO1           -18.7176605951       -3.9760687471        2.0395049822  MEOH      1081            0.0000000000
     25655      1773  MEOH      HO1           -18.5507856385       -4.2870431669        2.9589178019  MEOH      1081            0.0000000000
     25656      1773  MEOH      HO2           -19.5771675900       -4.0374961172        1.6328514971  MEOH      1081            0.0000000000
     25657      1773  MEOH      H1A           -18.3395214942       -2.2098296982        1.0073308957  MEOH      1081            0.0000000000
     25658      1773  MEOH      H1B           -17.3898714572       -2.4216440508        2.5417351997  MEOH      1081            0.0000000000
     25659      1773  MEOH      H1C           -19.1417902250       -2.0076733692        2.6103268699  MEOH      1081            0.0000000000
     25660      1773  MEOH      LP1A          -19.0462738301       -4.0110223644        2.1302057742  MEOH      1081            0.0000000000
     25661      1773  MEOH      LP1B          -18.4260307543       -4.1605358736        1.9705394433  MEOH      1081            0.0000000000
     25662      1774  MEOH      C1             28.9219771172       10.9462854852       28.1215699971  MEOH      1082            0.0000000000
     25663      1774  MEOH      DC1            28.9316199737       10.9609353636       28.1226446668  MEOH      1082            0.0000000000
     25664      1774  MEOH      O1             27.7724331640       10.7620831970       28.9512209340  MEOH      1082            0.0000000000
     25665      1774  MEOH      DO1            27.7789571416       10.7769807942       28.9540524617  MEOH      1082            0.0000000000
     25666      1774  MEOH      HO1            27.9249255994        9.9824464762       29.5078290921  MEOH      1082            0.0000000000
     25667      1774  MEOH      HO2            27.5704599544       11.6272370431       29.3405994711  MEOH      1082            0.0000000000
     25668      1774  MEOH      H1A            28.7073189551       11.7364478801       27.3706463898  MEOH      1082            0.0000000000
     25669      1774  MEOH      H1B            29.1530899907       10.0040980086       27.5800992236  MEOH      1082            0.0000000000
     25670      1774  MEOH      H1C            29.7964079359       11.2435589295       28.7390813289  MEOH      1082            0.0000000000
     25671      1774  MEOH      LP1A           27.8094915782       10.9424339259       29.2488789400  MEOH      1082            0.0000000000
     25672      1774  MEOH      LP1B           27.5379488259       10.5601068808       28.7877502550  MEOH      1082            0.0000000000
     25673      1775  MEOH      C1             32.7318130856       32.7564269708      -13.7652822178  MEOH      1083            0.0000000000
     25674      1775  MEOH      DC1            32.7256943304       32.7499053052      -13.7636443748  MEOH      1083            0.0000000000
     25675      1775  MEOH      O1             31.9597869216       31.6579913610      -14.2439258900  MEOH      1083            0.0000000000
     25676      1775  MEOH      DO1            31.9500070348       31.6606522785      -14.2430131907  MEOH      1083            0.0000000000
     25677      1775  MEOH      HO1            32.1925184840       31.5330817375      -15.1772712747  MEOH      1083            0.0000000000
     25678      1775  MEOH      HO2            32.1161143450       30.9375056276      -13.6135592945  MEOH      1083            0.0000000000
     25679      1775  MEOH      H1A            32.4463728486       32.9872448209      -12.7166793417  MEOH      1083            0.0000000000
     25680      1775  MEOH      H1B            32.5539575977       33.6505050269      -14.4003513912  MEOH      1083            0.0000000000
     25681      1775  MEOH      H1C            33.8149015981       32.5116656214      -13.8017809483  MEOH      1083            0.0000000000
     25682      1775  MEOH      LP1A           32.1326727626       31.3582436619      -14.1913730324  MEOH      1083            0.0000000000
     25683      1775  MEOH      LP1B           31.6524454635       31.7720800337      -14.3665024087  MEOH      1083            0.0000000000
     25684      1776  MEOH      C1             -3.5284551906      -17.1883924651       -1.7737943464  MEOH      1084            0.0000000000
     25685      1776  MEOH      DC1            -3.5347360103      -17.1875915227       -1.7790765517  MEOH      1084            0.0000000000
     25686      1776  MEOH      O1             -4.0080415785      -16.9520802828       -0.4503079403  MEOH      1084            0.0000000000
     25687      1776  MEOH      DO1            -4.0110147372      -16.9487635545       -0.4526801553  MEOH      1084            0.0000000000
     25688      1776  MEOH      HO1            -3.2498637597      -16.6459320345        0.0715537710  MEOH      1084            0.0000000000
     25689      1776  MEOH      HO2            -4.7965186457      -16.3954819588       -0.5472729865  MEOH      1084            0.0000000000
     25690      1776  MEOH      H1A            -4.3367774584      -17.6349977216       -2.3914349029  MEOH      1084            0.0000000000
     25691      1776  MEOH      H1B            -2.6585766354      -17.8790824560       -1.7497187218  MEOH      1084            0.0000000000
     25692      1776  MEOH      H1C            -3.2122914602      -16.2240183746       -2.2258387148  MEOH      1084            0.0000000000
     25693      1776  MEOH      LP1A           -4.1234436025      -16.6228848927       -0.4217988530  MEOH      1084            0.0000000000
     25694      1776  MEOH      LP1B           -3.9836129743      -17.2448510939       -0.2600752001  MEOH      1084            0.0000000000
     25695      1777  MEOH      C1              4.4041397666       29.4707509480       16.9477865593  MEOH      1085            0.0000000000
     25696      1777  MEOH      DC1             4.4054876838       29.4582207331       16.9645344348  MEOH      1085            0.0000000000
     25697      1777  MEOH      O1              3.3999716902       30.1979909319       16.2375396513  MEOH      1085            0.0000000000
     25698      1777  MEOH      DO1             3.4080443928       30.1902740308       16.2459067950  MEOH      1085            0.0000000000
     25699      1777  MEOH      HO1             2.6157318251       30.3280080353       16.7933844035  MEOH      1085            0.0000000000
     25700      1777  MEOH      HO2             3.8541109080       30.9629715633       15.8509362314  MEOH      1085            0.0000000000
     25701      1777  MEOH      H1A             5.1987528718       29.1696626835       16.2320653356  MEOH      1085            0.0000000000
     25702      1777  MEOH      H1B             3.9610049780       28.5656322784       17.4154539146  MEOH      1085            0.0000000000
     25703      1777  MEOH      H1C             4.8691116273       30.1066740120       17.7311919627  MEOH      1085            0.0000000000
     25704      1777  MEOH      LP1A            3.4451387418       30.5418168989       16.2849067481  MEOH      1085            0.0000000000
     25705      1777  MEOH      LP1B            3.1934365347       29.9765677150       16.0619976662  MEOH      1085            0.0000000000
     25706      1778  MEOH      C1             21.4064381518      -33.1395305711      -14.4148737029  MEOH      1086            0.0000000000
     25707      1778  MEOH      DC1            21.4020429644      -33.1347473541      -14.4200699935  MEOH      1086            0.0000000000
     25708      1778  MEOH      O1             22.6946909628      -32.8056967306      -13.9067372385  MEOH      1086            0.0000000000
     25709      1778  MEOH      DO1            22.6933473456      -32.8037352161      -13.9125697690  MEOH      1086            0.0000000000
     25710      1778  MEOH      HO1            23.3559688343      -33.0762947570      -14.5627770885  MEOH      1086            0.0000000000
     25711      1778  MEOH      HO2            22.6305231145      -31.8883306342      -13.5981567245  MEOH      1086            0.0000000000
     25712      1778  MEOH      H1A            20.6477480018      -32.9460910002      -13.6266533089  MEOH      1086            0.0000000000
     25713      1778  MEOH      H1B            21.3711689913      -34.2140790186      -14.6949142719  MEOH      1086            0.0000000000
     25714      1778  MEOH      H1C            21.1645126807      -32.5230218914      -15.3068995524  MEOH      1086            0.0000000000
     25715      1778  MEOH      LP1A           22.7801217149      -32.4798674826      -14.0017997850  MEOH      1086            0.0000000000
     25716      1778  MEOH      LP1B           22.8209255000      -33.0711742887      -13.7167727476  MEOH      1086            0.0000000000
     25717      1779  MEOH      C1            -26.9725188587        9.0461758617       -9.5979382391  MEOH      1087            0.0000000000
     25718      1779  MEOH      DC1           -26.9627400466        9.0515881960       -9.5929553857  MEOH      1087            0.0000000000
     25719      1779  MEOH      O1            -28.1789236826        8.2948821088       -9.7292242144  MEOH      1087            0.0000000000
     25720      1779  MEOH      DO1           -28.1770501735        8.3004123414       -9.7230220273  MEOH      1087            0.0000000000
     25721      1779  MEOH      HO1           -27.9427909474        7.3888179480       -9.9825798299  MEOH      1087            0.0000000000
     25722      1779  MEOH      HO2           -28.7107397132        8.4781644825       -8.9389841991  MEOH      1087            0.0000000000
     25723      1779  MEOH      H1A           -27.2315161262       10.1179433310       -9.4617181698  MEOH      1087            0.0000000000
     25724      1779  MEOH      H1B           -26.3400783393        8.9443818252      -10.5056705594  MEOH      1087            0.0000000000
     25725      1779  MEOH      H1C           -26.4141492565        8.6916998622       -8.7052506377  MEOH      1087            0.0000000000
     25726      1779  MEOH      LP1A          -28.2653225237        8.1524192087       -9.4214262899  MEOH      1087            0.0000000000
     25727      1779  MEOH      LP1B          -28.3009936249        8.3206293918      -10.0562349277  MEOH      1087            0.0000000000
     25728      1780  MEOH      C1             21.3094908026       27.0133202773       26.7335420819  MEOH      1088            0.0000000000
     25729      1780  MEOH      DC1            21.3042195070       27.0108882854       26.7154610121  MEOH      1088            0.0000000000
     25730      1780  MEOH      O1             20.0698235178       27.4873860556       26.1963749050  MEOH      1088            0.0000000000
     25731      1780  MEOH      DO1            20.0680151801       27.4913867011       26.1865898324  MEOH      1088            0.0000000000
     25732      1780  MEOH      HO1            19.3819421761       27.2667949520       26.8437224364  MEOH      1088            0.0000000000
     25733      1780  MEOH      HO2            20.2197620032       28.4089710683       25.9335070391  MEOH      1088            0.0000000000
     25734      1780  MEOH      H1A            22.1106294820       27.1273731000       25.9722998269  MEOH      1088            0.0000000000
     25735      1780  MEOH      H1B            21.2169441939       25.9412716837       27.0100704497  MEOH      1088            0.0000000000
     25736      1780  MEOH      H1C            21.5885724843       27.5888468996       27.6419492173  MEOH      1088            0.0000000000
     25737      1780  MEOH      LP1A           20.0155190173       27.8187620125       26.2950713914  MEOH      1088            0.0000000000
     25738      1780  MEOH      LP1B           19.9223506180       27.2391503446       25.9985599015  MEOH      1088            0.0000000000
     25739      1781  MEOH      C1            -31.0185771044       18.5686622372      -30.3612623771  MEOH      1089            0.0000000000
     25740      1781  MEOH      DC1           -30.9957303262       18.5750735335      -30.3588004949  MEOH      1089            0.0000000000
     25741      1781  MEOH      O1            -31.7966180040       18.2432562026      -31.4985293582  MEOH      1089            0.0000000000
     25742      1781  MEOH      DO1           -31.7566698087       18.2514721686      -31.5045378804  MEOH      1089            0.0000000000
     25743      1781  MEOH      HO1           -32.1030536314       18.9977666114      -32.0255125172  MEOH      1089            0.0000000000
     25744      1781  MEOH      HO2           -31.7191259280       17.3052575210      -31.7331640775  MEOH      1089            0.0000000000
     25745      1781  MEOH      H1A           -31.2909566471       17.9031592700      -29.5143643978  MEOH      1089            0.0000000000
     25746      1781  MEOH      H1B           -31.1884859370       19.6249082292      -30.0616019128  MEOH      1089            0.0000000000
     25747      1781  MEOH      H1C           -29.9538752658       18.3854593621      -30.6204297004  MEOH      1089            0.0000000000
     25748      1781  MEOH      LP1A          -31.5886683436       18.1938394976      -31.7756844195  MEOH      1089            0.0000000000
     25749      1781  MEOH      LP1B          -32.1351270825       18.2264898364      -31.4111766668  MEOH      1089            0.0000000000
     25750      1782  MEOH      C1             22.5323777065       10.0818997314      -19.0640827602  MEOH      1090            0.0000000000
     25751      1782  MEOH      DC1            22.5331915794       10.0819331439      -19.0584344839  MEOH      1090            0.0000000000
     25752      1782  MEOH      O1             21.9553099984       11.3743720319      -18.8721509076  MEOH      1090            0.0000000000
     25753      1782  MEOH      DO1            21.9548652407       11.3797575271      -18.8684595591  MEOH      1090            0.0000000000
     25754      1782  MEOH      HO1            22.3193866382       11.7233167252      -18.0435461756  MEOH      1090            0.0000000000
     25755      1782  MEOH      HO2            22.1083501465       11.8521050542      -19.7023616473  MEOH      1090            0.0000000000
     25756      1782  MEOH      H1A            22.1340902763        9.6288916492      -19.9970735435  MEOH      1090            0.0000000000
     25757      1782  MEOH      H1B            22.2879803502        9.4212410170      -18.2049430767  MEOH      1090            0.0000000000
     25758      1782  MEOH      H1C            23.6359047856       10.1773969738      -19.1502759295  MEOH      1090            0.0000000000
     25759      1782  MEOH      LP1A           22.1528736695       11.6179494116      -19.0275171071  MEOH      1090            0.0000000000
     25760      1782  MEOH      LP1B           21.6551254558       11.3462440552      -18.6943924836  MEOH      1090            0.0000000000
     25761      1783  MEOH      C1             25.1588261724      -17.5620340559       21.3635092553  MEOH      1091            0.0000000000
     25762      1783  MEOH      DC1            25.1609109557      -17.5648681293       21.3734379861  MEOH      1091            0.0000000000
     25763      1783  MEOH      O1             26.4789598338      -17.0384121215       21.1999956596  MEOH      1091            0.0000000000
     25764      1783  MEOH      DO1            26.4739093613      -17.0320615019       21.2082936504  MEOH      1091            0.0000000000
     25765      1783  MEOH      HO1            26.9200483442      -16.9867171465       22.0623578552  MEOH      1091            0.0000000000
     25766      1783  MEOH      HO2            26.8899984976      -17.5750239075       20.5042981622  MEOH      1091            0.0000000000
     25767      1783  MEOH      H1A            24.6498790929      -17.5751189170       20.3760262647  MEOH      1091            0.0000000000
     25768      1783  MEOH      H1B            24.5715779905      -16.9250748816       22.0590260314  MEOH      1091            0.0000000000
     25769      1783  MEOH      H1C            25.2058777499      -18.6027682017       21.7494879949  MEOH      1091            0.0000000000
     25770      1783  MEOH      LP1A           26.7045297753      -17.2991352179       21.1396494211  MEOH      1091            0.0000000000
     25771      1783  MEOH      LP1B           26.4727343445      -16.6891377032       21.2216433853  MEOH      1091            0.0000000000
     25772      1784  MEOH      C1              9.4652332233      -27.9403761957      -24.1740814172  MEOH      1092            0.0000000000
     25773      1784  MEOH      DC1             9.4669549590      -27.9606200714      -24.1720920701  MEOH      1092            0.0000000000
     25774      1784  MEOH      O1              9.0344667357      -29.3025436813      -24.2733959485  MEOH      1092            0.0000000000
     25775      1784  MEOH      DO1             9.0382051649      -29.3152707840      -24.2686394019  MEOH      1092            0.0000000000
     25776      1784  MEOH      HO1             9.0121872261      -29.5283253368      -25.2164899353  MEOH      1092            0.0000000000
     25777      1784  MEOH      HO2             9.5815388545      -29.8074034183      -23.6515207659  MEOH      1092            0.0000000000
     25778      1784  MEOH      H1A             9.3661140623      -27.5879059068      -23.1251481079  MEOH      1092            0.0000000000
     25779      1784  MEOH      H1B             8.8420793646      -27.2875769186      -24.8220423531  MEOH      1092            0.0000000000
     25780      1784  MEOH      H1C            10.5273532247      -27.8451151248      -24.4857662445  MEOH      1092            0.0000000000
     25781      1784  MEOH      LP1A            9.3108530599      -29.5168207159      -24.2593976554  MEOH      1092            0.0000000000
     25782      1784  MEOH      LP1B            8.6852734403      -29.3165720645      -24.2925596364  MEOH      1092            0.0000000000
     25783      1785  MEOH      C1             19.2564955783       25.4209289956      -32.2765477256  MEOH      1093            0.0000000000
     25784      1785  MEOH      DC1            19.2564681756       25.4270757253      -32.2740275974  MEOH      1093            0.0000000000
     25785      1785  MEOH      O1             19.5253935484       26.8101893539      -32.4622694951  MEOH      1093            0.0000000000
     25786      1785  MEOH      DO1            19.5138252291       26.8177780148      -32.4621250987  MEOH      1093            0.0000000000
     25787      1785  MEOH      HO1            19.2075918523       27.0476945175      -33.3474211088  MEOH      1093            0.0000000000
     25788      1785  MEOH      HO2            19.2046993162       27.2586214487      -31.6641693338  MEOH      1093            0.0000000000
     25789      1785  MEOH      H1A            19.7582727209       25.0536718234      -31.3558616397  MEOH      1093            0.0000000000
     25790      1785  MEOH      H1B            19.6696987025       24.8530636320      -33.1374269908  MEOH      1093            0.0000000000
     25791      1785  MEOH      H1C            18.1628853076       25.2407804499      -32.1998399805  MEOH      1093            0.0000000000
     25792      1785  MEOH      LP1A           19.2554721109       27.0008256819      -32.3469429671  MEOH      1093            0.0000000000
     25793      1785  MEOH      LP1B           19.8450290077       26.8531186433      -32.5982483510  MEOH      1093            0.0000000000
     25794      1786  MEOH      C1            -27.0975253453       -7.1680933746       21.0408104244  MEOH      1094            0.0000000000
     25795      1786  MEOH      DC1           -27.1015147035       -7.1797787548       21.0415661034  MEOH      1094            0.0000000000
     25796      1786  MEOH      O1            -27.3647124975       -8.2931084086       21.8759777435  MEOH      1094            0.0000000000
     25797      1786  MEOH      DO1           -27.3691040640       -8.3011828549       21.8760838768  MEOH      1094            0.0000000000
     25798      1786  MEOH      HO1           -27.7887816537       -7.9584890941       22.6816422302  MEOH      1094            0.0000000000
     25799      1786  MEOH      HO2           -27.7985604961       -8.9557013796       21.3159362539  MEOH      1094            0.0000000000
     25800      1786  MEOH      H1A           -26.5163290392       -7.4934483277       20.1516107788  MEOH      1094            0.0000000000
     25801      1786  MEOH      H1B           -26.5028064207       -6.4130690482       21.5980973054  MEOH      1094            0.0000000000
     25802      1786  MEOH      H1C           -28.0516510109       -6.7108106064       20.7019038235  MEOH      1094            0.0000000000
     25803      1786  MEOH      LP1A          -27.6799219181       -8.4255651597       21.8011564216  MEOH      1094            0.0000000000
     25804      1786  MEOH      LP1B          -27.0897619905       -8.3564361688       22.0830811319  MEOH      1094            0.0000000000
     25805      1787  MEOH      C1             32.4826114914       15.5383261089      -33.5327418941  MEOH      1095            0.0000000000
     25806      1787  MEOH      DC1            32.4846938791       15.5406348057      -33.5359877155  MEOH      1095            0.0000000000
     25807      1787  MEOH      O1             32.2820122254       14.5504290628      -34.5281256646  MEOH      1095            0.0000000000
     25808      1787  MEOH      DO1            32.2905420133       14.5467082297      -34.5281971333  MEOH      1095            0.0000000000
     25809      1787  MEOH      HO1            33.0531602097       14.5313165999      -35.1162289718  MEOH      1095            0.0000000000
     25810      1787  MEOH      HO2            31.9295686894       13.7663140640      -34.0788515568  MEOH      1095            0.0000000000
     25811      1787  MEOH      H1A            31.5531438648       15.6280363228      -32.9307759410  MEOH      1095            0.0000000000
     25812      1787  MEOH      H1B            32.6980273661       16.5109953764      -34.0245055557  MEOH      1095            0.0000000000
     25813      1787  MEOH      H1C            33.3223754665       15.2501970002      -32.8648354011  MEOH      1095            0.0000000000
     25814      1787  MEOH      LP1A           32.4022612582       14.2414295720      -34.4160565573  MEOH      1095            0.0000000000
     25815      1787  MEOH      LP1B           32.1176416883       14.6899445809      -34.8038388249  MEOH      1095            0.0000000000
     25816      1788  MEOH      C1             20.0797009884       27.2271651352       15.4032595088  MEOH      1096            0.0000000000
     25817      1788  MEOH      DC1            20.0937587790       27.2262830107       15.3961612272  MEOH      1096            0.0000000000
     25818      1788  MEOH      O1             21.3267054144       26.7643413129       14.8818738641  MEOH      1096            0.0000000000
     25819      1788  MEOH      DO1            21.3385223558       26.7788645125       14.8722086469  MEOH      1096            0.0000000000
     25820      1788  MEOH      HO1            21.6918253863       26.1363516802       15.5246929889  MEOH      1096            0.0000000000
     25821      1788  MEOH      HO2            21.1247623576       26.4312292297       13.9935297064  MEOH      1096            0.0000000000
     25822      1788  MEOH      H1A            19.5924133260       27.9002091672       14.6657749560  MEOH      1096            0.0000000000
     25823      1788  MEOH      H1B            20.2427216564       27.7913099740       16.3463850904  MEOH      1096            0.0000000000
     25824      1788  MEOH      H1C            19.4051516127       26.3671653750       15.6025195235  MEOH      1096            0.0000000000
     25825      1788  MEOH      LP1A           21.2752115206       26.4824095335       14.6809687854  MEOH      1096            0.0000000000
     25826      1788  MEOH      LP1B           21.5857572664       26.9753410064       14.9861392339  MEOH      1096            0.0000000000
     25827      1789  MEOH      C1             19.8586507965        6.1276240798       20.0406247146  MEOH      1097            0.0000000000
     25828      1789  MEOH      DC1            19.8586851460        6.1298560511       20.0344263284  MEOH      1097            0.0000000000
     25829      1789  MEOH      O1             20.3526812248        6.5052971460       21.3251149462  MEOH      1097            0.0000000000
     25830      1789  MEOH      DO1            20.3542701304        6.5025869211       21.3251529058  MEOH      1097            0.0000000000
     25831      1789  MEOH      HO1            19.9601407492        7.3626901058       21.5524677283  MEOH      1097            0.0000000000
     25832      1789  MEOH      HO2            20.1995258624        5.7382701625       21.8987986946  MEOH      1097            0.0000000000
     25833      1789  MEOH      H1A            20.3253842512        5.1688910771       19.7286761386  MEOH      1097            0.0000000000
     25834      1789  MEOH      H1B            20.1159291594        6.9084280903       19.2933135729  MEOH      1097            0.0000000000
     25835      1789  MEOH      H1C            18.7561982377        5.9973113339       20.0846467981  MEOH      1097            0.0000000000
     25836      1789  MEOH      LP1A           20.1439218288        6.3783594156       21.5757268517  MEOH      1097            0.0000000000
     25837      1789  MEOH      LP1B           20.6504699882        6.6859123410       21.2904738762  MEOH      1097            0.0000000000
     25838      1790  MEOH      C1            -13.2903210238      -25.8745154437      -36.2056427519  MEOH      1098            0.0000000000
     25839      1790  MEOH      DC1           -13.2903682965      -25.8921429724      -36.1983920085  MEOH      1098            0.0000000000
     25840      1790  MEOH      O1            -11.9118366959      -25.6183801528      -36.4783652275  MEOH      1098            0.0000000000
     25841      1790  MEOH      DO1           -11.9096816034      -25.6417014193      -36.4731628254  MEOH      1098            0.0000000000
     25842      1790  MEOH      HO1           -11.8640993432      -24.7114768162      -36.8191693988  MEOH      1098            0.0000000000
     25843      1790  MEOH      HO2           -11.4158754145      -25.8899460287      -35.6902190590  MEOH      1098            0.0000000000
     25844      1790  MEOH      H1A           -13.4138838307      -26.9739035484      -36.1036671220  MEOH      1098            0.0000000000
     25845      1790  MEOH      H1B           -13.9576242062      -25.5347728958      -37.0263756343  MEOH      1098            0.0000000000
     25846      1790  MEOH      H1C           -13.6483274237      -25.3099900324      -35.3182513628  MEOH      1098            0.0000000000
     25847      1790  MEOH      LP1A          -11.7553794551      -25.4891980668      -36.1931756055  MEOH      1098            0.0000000000
     25848      1790  MEOH      LP1B          -11.8345686168      -25.7152124925      -36.8057077727  MEOH      1098            0.0000000000
     25849      1791  MEOH      C1             35.8456963239       32.4748292276       18.3682626499  MEOH      1099            0.0000000000
     25850      1791  MEOH      DC1            35.8522890782       32.4748803964       18.3627733969  MEOH      1099            0.0000000000
     25851      1791  MEOH      O1             35.2806108240       33.3092973451       19.3713503813  MEOH      1099            0.0000000000
     25852      1791  MEOH      DO1            35.2848257393       33.3093581843       19.3690344289  MEOH      1099            0.0000000000
     25853      1791  MEOH      HO1            34.6346901794       33.8873474027       18.9359831184  MEOH      1099            0.0000000000
     25854      1791  MEOH      HO2            35.0040603496       32.7064582730       20.0791673692  MEOH      1099            0.0000000000
     25855      1791  MEOH      H1A            36.1729089432       31.5202655675       18.8330864025  MEOH      1099            0.0000000000
     25856      1791  MEOH      H1B            36.7155244851       33.0043119915       17.9240014961  MEOH      1099            0.0000000000
     25857      1791  MEOH      H1C            35.0908051189       32.2272912386       17.5916126555  MEOH      1099            0.0000000000
     25858      1791  MEOH      LP1A           35.0007859851       33.1537596457       19.5127932447  MEOH      1099            0.0000000000
     25859      1791  MEOH      LP1B           35.4718744987       33.6002730371       19.4067248545  MEOH      1099            0.0000000000
     25860      1792  MEOH      C1            -14.1587227885      -21.4405787433       30.1354212190  MEOH      1100            0.0000000000
     25861      1792  MEOH      DC1           -14.1423245641      -21.4361978956       30.1369421195  MEOH      1100            0.0000000000
     25862      1792  MEOH      O1            -15.0157102480      -21.6960636328       29.0217643256  MEOH      1100            0.0000000000
     25863      1792  MEOH      DO1           -15.0058044381      -21.6957693669       29.0224727942  MEOH      1100            0.0000000000
     25864      1792  MEOH      HO1           -15.7527565976      -22.2409672308       29.3391643074  MEOH      1100            0.0000000000
     25865      1792  MEOH      HO2           -15.1932092187      -20.8309590703       28.6205309629  MEOH      1100            0.0000000000
     25866      1792  MEOH      H1A           -13.2562668081      -20.8947248543       29.7862253782  MEOH      1100            0.0000000000
     25867      1792  MEOH      H1B           -13.8385207763      -22.3993515501       30.5964487431  MEOH      1100            0.0000000000
     25868      1792  MEOH      H1C           -14.6886577327      -20.8214166379       30.8904895886  MEOH      1100            0.0000000000
     25869      1792  MEOH      LP1A          -15.2552936365      -21.4423875883       28.9944099030  MEOH      1100            0.0000000000
     25870      1792  MEOH      LP1B          -14.9128087709      -21.9864512987       28.8556731171  MEOH      1100            0.0000000000
     25871      1793  MEOH      C1             27.4506357928       23.4014201132      -26.2928143678  MEOH      1101            0.0000000000
     25872      1793  MEOH      DC1            27.4438662405       23.3970909129      -26.2962431704  MEOH      1101            0.0000000000
     25873      1793  MEOH      O1             28.6442812646       22.9022434144      -25.6843496876  MEOH      1101            0.0000000000
     25874      1793  MEOH      DO1            28.6351284028       22.8919203980      -25.6861662923  MEOH      1101            0.0000000000
     25875      1793  MEOH      HO1            28.9482988390       23.5580615067      -25.0375298176  MEOH      1101            0.0000000000
     25876      1793  MEOH      HO2            28.4617394432       21.9835000155      -25.4323793493  MEOH      1101            0.0000000000
     25877      1793  MEOH      H1A            27.2110461382       22.7880606682      -27.1876372494  MEOH      1101            0.0000000000
     25878      1793  MEOH      H1B            27.6011779839       24.4554886736      -26.6099854868  MEOH      1101            0.0000000000
     25879      1793  MEOH      H1C            26.6018849581       23.3461674356      -25.5780485571  MEOH      1101            0.0000000000
     25880      1793  MEOH      LP1A           28.5638787006       22.7093273348      -25.4036028017  MEOH      1101            0.0000000000
     25881      1793  MEOH      LP1B           28.9238958665       23.0021055979      -25.8696689223  MEOH      1101            0.0000000000
     25882      1794  MEOH      C1              5.5686784144       -8.0436714815       -5.8011909360  MEOH      1102            0.0000000000
     25883      1794  MEOH      DC1             5.5693232404       -8.0524926120       -5.7996257189  MEOH      1102            0.0000000000
     25884      1794  MEOH      O1              6.2218365101       -7.8910642245       -7.0605144050  MEOH      1102            0.0000000000
     25885      1794  MEOH      DO1             6.2205005700       -7.8892413228       -7.0519094185  MEOH      1102            0.0000000000
     25886      1794  MEOH      HO1             7.1161661826       -8.2635385298       -7.0121684679  MEOH      1102            0.0000000000
     25887      1794  MEOH      HO2             5.6035612829       -8.2181484921       -7.7325647196  MEOH      1102            0.0000000000
     25888      1794  MEOH      H1A             4.6001554724       -7.4999350621       -5.8263904972  MEOH      1102            0.0000000000
     25889      1794  MEOH      H1B             6.1928092658       -7.6066557933       -4.9926125732  MEOH      1102            0.0000000000
     25890      1794  MEOH      H1C             5.3700957793       -9.1171363543       -5.5948923519  MEOH      1102            0.0000000000
     25891      1794  MEOH      LP1A            6.1554417521       -8.1678931996       -7.2641254427  MEOH      1102            0.0000000000
     25892      1794  MEOH      LP1B            6.3884677896       -7.5835067232       -7.0724475569  MEOH      1102            0.0000000000
     25893      1795  MEOH      C1             -5.4882685831      -15.1461747442       11.6299049677  MEOH      1103            0.0000000000
     25894      1795  MEOH      DC1            -5.4901745939      -15.1542818639       11.6291967187  MEOH      1103            0.0000000000
     25895      1795  MEOH      O1             -4.6261315069      -14.6852108358       12.6744210226  MEOH      1103            0.0000000000
     25896      1795  MEOH      DO1            -4.6245650352      -14.6883177254       12.6661645171  MEOH      1103            0.0000000000
     25897      1795  MEOH      HO1            -3.9114364478      -14.1540891034       12.2896864676  MEOH      1103            0.0000000000
     25898      1795  MEOH      HO2            -5.1998237652      -14.3343713980       13.3734838831  MEOH      1103            0.0000000000
     25899      1795  MEOH      H1A            -6.2214939288      -15.8655722032       12.0531884304  MEOH      1103            0.0000000000
     25900      1795  MEOH      H1B            -4.8992865713      -15.6573605915       10.8386336995  MEOH      1103            0.0000000000
     25901      1795  MEOH      H1C            -6.0427839787      -14.2938753806       11.1822226349  MEOH      1103            0.0000000000
     25902      1795  MEOH      LP1A           -4.7410998039      -14.3785812978       12.7979548928  MEOH      1103            0.0000000000
     25903      1795  MEOH      LP1B           -4.3734262554      -14.9200642856       12.7334457037  MEOH      1103            0.0000000000
     25904      1796  MEOH      C1             23.8653089296       27.8587238176       11.4590812400  MEOH      1104            0.0000000000
     25905      1796  MEOH      DC1            23.8689869911       27.8602009805       11.4624385069  MEOH      1104            0.0000000000
     25906      1796  MEOH      O1             22.8528961051       27.0305154170       10.8807606653  MEOH      1104            0.0000000000
     25907      1796  MEOH      DO1            22.8468363801       27.0452707274       10.8797635774  MEOH      1104            0.0000000000
     25908      1796  MEOH      HO1            22.7158235240       26.2581248450       11.4513076939  MEOH      1104            0.0000000000
     25909      1796  MEOH      HO2            22.1253853465       27.6176578894       10.6221261471  MEOH      1104            0.0000000000
     25910      1796  MEOH      H1A            24.1347524059       28.6744186346       10.7545507719  MEOH      1104            0.0000000000
     25911      1796  MEOH      H1B            24.7806182324       27.2608891894       11.6568782020  MEOH      1104            0.0000000000
     25912      1796  MEOH      H1C            23.4873941981       28.3043362011       12.4040315347  MEOH      1104            0.0000000000
     25913      1796  MEOH      LP1A           22.5373607202       27.1294400066       10.9954399855  MEOH      1104            0.0000000000
     25914      1796  MEOH      LP1B           22.9978878331       26.8003345303       10.6605467733  MEOH      1104            0.0000000000
     25915      1797  MEOH      C1              8.0406189838      -25.7252163821       34.7306771526  MEOH      1105            0.0000000000
     25916      1797  MEOH      DC1             8.0540587920      -25.7338445820       34.7450551801  MEOH      1105            0.0000000000
     25917      1797  MEOH      O1              6.6234926927      -25.6570507886       34.7210797689  MEOH      1105            0.0000000000
     25918      1797  MEOH      DO1             6.6312577056      -25.6617462339       34.7442136654  MEOH      1105            0.0000000000
     25919      1797  MEOH      HO1             6.3705671930      -25.2603426331       33.8728160530  MEOH      1105            0.0000000000
     25920      1797  MEOH      HO2             6.3127845067      -26.5449686919       34.9576431220  MEOH      1105            0.0000000000
     25921      1797  MEOH      H1A             8.3774409833      -26.1288129980       35.7094425547  MEOH      1105            0.0000000000
     25922      1797  MEOH      H1B             8.4573992372      -24.7073713890       34.5738116283  MEOH      1105            0.0000000000
     25923      1797  MEOH      H1C             8.3859058923      -26.3876373507       33.9083047238  MEOH      1105            0.0000000000
     25924      1797  MEOH      LP1A            6.4903081529      -25.9528166148       34.5896094133  MEOH      1105            0.0000000000
     25925      1797  MEOH      LP1B            6.5172465341      -25.3545174796       34.8613842617  MEOH      1105            0.0000000000
     25926      1798  MEOH      C1            -19.3976322142       32.9895476131       20.8240087363  MEOH      1106            0.0000000000
     25927      1798  MEOH      DC1           -19.3995162998       32.9732680286       20.8085355573  MEOH      1106            0.0000000000
     25928      1798  MEOH      O1            -19.1625462739       32.0750688486       19.7448598062  MEOH      1106            0.0000000000
     25929      1798  MEOH      DO1           -19.1670741794       32.0590644430       19.7371228332  MEOH      1106            0.0000000000
     25930      1798  MEOH      HO1           -19.1867976597       32.5976984674       18.9280549623  MEOH      1106            0.0000000000
     25931      1798  MEOH      HO2           -18.3626682449       31.5816334028       19.9848943863  MEOH      1106            0.0000000000
     25932      1798  MEOH      H1A           -19.3895722989       32.4730193669       21.8076014415  MEOH      1106            0.0000000000
     25933      1798  MEOH      H1B           -20.3725162023       33.5065019119       20.6948558705  MEOH      1106            0.0000000000
     25934      1798  MEOH      H1C           -18.5769452310       33.7373660204       20.8635246464  MEOH      1106            0.0000000000
     25935      1798  MEOH      LP1A          -18.8190367737       32.0482399835       19.6833664304  MEOH      1106            0.0000000000
     25936      1798  MEOH      LP1B          -19.4659431364       31.9405706848       19.6336816262  MEOH      1106            0.0000000000
     25937      1799  MEOH      C1             32.7316372154        0.5049193849       -8.9016526162  MEOH      1107            0.0000000000
     25938      1799  MEOH      DC1            32.7368039158        0.4925234659       -8.9086288307  MEOH      1107            0.0000000000
     25939      1799  MEOH      O1             32.7323198467       -0.3817977072       -7.7860372054  MEOH      1107            0.0000000000
     25940      1799  MEOH      DO1            32.7294629180       -0.4046543192       -7.7954283188  MEOH      1107            0.0000000000
     25941      1799  MEOH      HO1            31.9377525797       -0.2136778328       -7.2556613324  MEOH      1107            0.0000000000
     25942      1799  MEOH      HO2            33.0051751927       -1.2569789612       -8.1030667511  MEOH      1107            0.0000000000
     25943      1799  MEOH      H1A            33.7403573043        0.5183304814       -9.3670824441  MEOH      1107            0.0000000000
     25944      1799  MEOH      H1B            32.4936237109        1.5375906691       -8.5680951375  MEOH      1107            0.0000000000
     25945      1799  MEOH      H1C            31.9777501297        0.1766510545       -9.6487905992  MEOH      1107            0.0000000000
     25946      1799  MEOH      LP1A           32.5721705657       -0.6811893717       -7.8709891864  MEOH      1107            0.0000000000
     25947      1799  MEOH      LP1B           32.9025105785       -0.2358854608       -7.5172534055  MEOH      1107            0.0000000000
     25948      1800  MEOH      C1            -27.6542256121       12.0253277538       12.4774354185  MEOH      1108            0.0000000000
     25949      1800  MEOH      DC1           -27.6503162421       12.0321032023       12.4715688181  MEOH      1108            0.0000000000
     25950      1800  MEOH      O1            -26.9619592214       11.3890565220       11.4063104994  MEOH      1108            0.0000000000
     25951      1800  MEOH      DO1           -26.9598784858       11.3945175354       11.4011029580  MEOH      1108            0.0000000000
     25952      1800  MEOH      HO1           -27.5835830570       11.2860792133       10.6688286468  MEOH      1108            0.0000000000
     25953      1800  MEOH      HO2           -26.1124035826       11.8467207499       11.3078286682  MEOH      1108            0.0000000000
     25954      1800  MEOH      H1A           -27.0352582307       11.9602442453       13.3977421708  MEOH      1108            0.0000000000
     25955      1800  MEOH      H1B           -28.6220632850       11.5145368691       12.6690180666  MEOH      1108            0.0000000000
     25956      1800  MEOH      H1C           -27.8324041308       13.0945188096       12.2337062589  MEOH      1108            0.0000000000
     25957      1800  MEOH      LP1A          -26.8093256243       11.6294877122       11.2028508528  MEOH      1108            0.0000000000
     25958      1800  MEOH      LP1B          -26.9887734474       11.0413700151       11.4362285571  MEOH      1108            0.0000000000
     25959      1801  MEOH      C1            -25.2904536866      -27.3825572996       20.0062270134  MEOH      1109            0.0000000000
     25960      1801  MEOH      DC1           -25.2866968527      -27.3859768257       19.9969153861  MEOH      1109            0.0000000000
     25961      1801  MEOH      O1            -26.0007785123      -26.6340630634       20.9991141877  MEOH      1109            0.0000000000
     25962      1801  MEOH      DO1           -26.0030288547      -26.6401947024       20.9830554433  MEOH      1109            0.0000000000
     25963      1801  MEOH      HO1           -26.0362678505      -27.1337896747       21.8297246996  MEOH      1109            0.0000000000
     25964      1801  MEOH      HO2           -25.6391125107      -25.7340846314       20.9874297848  MEOH      1109            0.0000000000
     25965      1801  MEOH      H1A           -25.2375963661      -26.7819866609       19.0730378516  MEOH      1109            0.0000000000
     25966      1801  MEOH      H1B           -25.8127071852      -28.3406160571       19.7971918444  MEOH      1109            0.0000000000
     25967      1801  MEOH      H1C           -24.2564336423      -27.6137740914       20.3403861726  MEOH      1109            0.0000000000
     25968      1801  MEOH      LP1A          -25.7792786184      -26.4274564545       21.1744752613  MEOH      1109            0.0000000000
     25969      1801  MEOH      LP1B          -26.3426659023      -26.7070468407       20.9821913981  MEOH      1109            0.0000000000
     25970      1802  MEOH      C1            -32.3655877194       29.9899648420       -3.6332613761  MEOH      1110            0.0000000000
     25971      1802  MEOH      DC1           -32.3769320811       29.9892010715       -3.6183510702  MEOH      1110            0.0000000000
     25972      1802  MEOH      O1            -33.7472031205       30.3019510479       -3.8397136932  MEOH      1110            0.0000000000
     25973      1802  MEOH      DO1           -33.7520613116       30.3010707066       -3.8256447330  MEOH      1110            0.0000000000
     25974      1802  MEOH      HO1           -34.2871864105       29.7043471507       -3.2991698650  MEOH      1110            0.0000000000
     25975      1802  MEOH      HO2           -33.8288831555       31.2655022895       -3.7635731869  MEOH      1110            0.0000000000
     25976      1802  MEOH      H1A           -31.7476491856       30.5394852704       -4.3752184287  MEOH      1110            0.0000000000
     25977      1802  MEOH      H1B           -32.1819396745       28.9035668535       -3.7758580312  MEOH      1110            0.0000000000
     25978      1802  MEOH      H1C           -32.0481666646       30.2994096831       -2.6145323807  MEOH      1110            0.0000000000
     25979      1802  MEOH      LP1A          -33.8499352560       30.5469786944       -3.6118813848  MEOH      1110            0.0000000000
     25980      1802  MEOH      LP1B          -33.8725887997       30.1174322557       -4.1094010063  MEOH      1110            0.0000000000
     25981      1803  MEOH      C1             28.3705474037       26.7058545057       13.2366039451  MEOH      1111            0.0000000000
     25982      1803  MEOH      DC1            28.3680159835       26.7048985148       13.2216477980  MEOH      1111            0.0000000000
     25983      1803  MEOH      O1             27.4370795506       27.6414820706       12.7140438044  MEOH      1111            0.0000000000
     25984      1803  MEOH      DO1            27.4341926275       27.6481727518       12.7097517445  MEOH      1111            0.0000000000
     25985      1803  MEOH      HO1            26.7426687816       27.7126594535       13.3875625228  MEOH      1111            0.0000000000
     25986      1803  MEOH      HO2            27.9660394246       28.4136895326       12.4594910823  MEOH      1111            0.0000000000
     25987      1803  MEOH      H1A            29.1514596985       26.4964101439       12.4746130994  MEOH      1111            0.0000000000
     25988      1803  MEOH      H1B            27.8575400395       25.7535282012       13.4900187337  MEOH      1111            0.0000000000
     25989      1803  MEOH      H1C            28.8646505037       27.1228764701       14.1400837776  MEOH      1111            0.0000000000
     25990      1803  MEOH      LP1A           27.5266939092       27.9660585723       12.8095391514  MEOH      1111            0.0000000000
     25991      1803  MEOH      LP1B           27.1966763705       27.4757085142       12.5211048530  MEOH      1111            0.0000000000
     25992      1804  MEOH      C1             -6.1341950492       27.0681260907      -12.8041962495  MEOH      1112            0.0000000000
     25993      1804  MEOH      DC1            -6.1406886407       27.0681868273      -12.8151036615  MEOH      1112            0.0000000000
     25994      1804  MEOH      O1             -5.5432634609       25.7899756067      -13.0152120581  MEOH      1112            0.0000000000
     25995      1804  MEOH      DO1            -5.5483229639       25.7883741691      -13.0222622588  MEOH      1112            0.0000000000
     25996      1804  MEOH      HO1            -5.2147185502       25.4938976716      -12.1519067250  MEOH      1112            0.0000000000
     25997      1804  MEOH      HO2            -6.2005414980       25.2707946404      -13.5044325673  MEOH      1112            0.0000000000
     25998      1804  MEOH      H1A            -6.4216660890       27.5214956614      -13.7768922110  MEOH      1112            0.0000000000
     25999      1804  MEOH      H1B            -5.4180848945       27.7423804440      -12.2875839041  MEOH      1112            0.0000000000
     26000      1804  MEOH      H1C            -7.0505326354       26.9450435734      -12.1881628718  MEOH      1112            0.0000000000
     26001      1804  MEOH      LP1A           -5.7843052703       25.5389905548      -12.9777240619  MEOH      1112            0.0000000000
     26002      1804  MEOH      LP1B           -5.2055099132       25.8266640934      -13.0993339693  MEOH      1112            0.0000000000
     26003      1805  MEOH      C1            -25.2639393390       25.8922599818      -23.9125050855  MEOH      1113            0.0000000000
     26004      1805  MEOH      DC1           -25.2571554998       25.8865131822      -23.9296130639  MEOH      1113            0.0000000000
     26005      1805  MEOH      O1            -26.1027916508       26.9874972344      -23.5691476557  MEOH      1113            0.0000000000
     26006      1805  MEOH      DO1           -26.1028021221       26.9792731352      -23.5855881868  MEOH      1113            0.0000000000
     26007      1805  MEOH      HO1           -26.3964227238       26.8628970089      -22.6530933027  MEOH      1113            0.0000000000
     26008      1805  MEOH      HO2           -25.6204523353       27.7897650182      -23.8233428321  MEOH      1113            0.0000000000
     26009      1805  MEOH      H1A           -25.0550150252       25.9479423034      -25.0022624494  MEOH      1113            0.0000000000
     26010      1805  MEOH      H1B           -25.7727000608       24.9305231138      -23.6876813206  MEOH      1113            0.0000000000
     26011      1805  MEOH      H1C           -24.3108908447       25.9520489118      -23.3446628087  MEOH      1113            0.0000000000
     26012      1805  MEOH      LP1A          -25.9105197734       27.2492453580      -23.4386890610  MEOH      1113            0.0000000000
     26013      1805  MEOH      LP1B          -26.4348688339       26.9146027232      -23.6522808903  MEOH      1113            0.0000000000
     26014      1806  MEOH      C1             23.6246218737       27.3505386995      -31.9400183877  MEOH      1114            0.0000000000
     26015      1806  MEOH      DC1            23.6241407495       27.3541163074      -31.9383729952  MEOH      1114            0.0000000000
     26016      1806  MEOH      O1             22.9078892300       26.4346761652      -32.7717996088  MEOH      1114            0.0000000000
     26017      1806  MEOH      DO1            22.9083823022       26.4359953496      -32.7701412346  MEOH      1114            0.0000000000
     26018      1806  MEOH      HO1            22.9484180091       25.5590164772      -32.3564954668  MEOH      1114            0.0000000000
     26019      1806  MEOH      HO2            22.0508292935       26.8527101927      -32.9495517314  MEOH      1114            0.0000000000
     26020      1806  MEOH      H1A            23.6817299752       28.3381996063      -32.4455731324  MEOH      1114            0.0000000000
     26021      1806  MEOH      H1B            24.6564010251       26.9797669852      -31.7603489155  MEOH      1114            0.0000000000
     26022      1806  MEOH      H1C            23.0996561547       27.4729904120      -30.9685568228  MEOH      1114            0.0000000000
     26023      1806  MEOH      LP1A           22.5703640455       26.4280403948      -32.6794269053  MEOH      1114            0.0000000000
     26024      1806  MEOH      LP1B           23.1230329758       26.2964673618      -33.0107797238  MEOH      1114            0.0000000000
     26025      1807  MEOH      C1            -36.1598725738      -31.5474424914       25.0069328204  MEOH      1115            0.0000000000
     26026      1807  MEOH      DC1           -36.1576666880      -31.5514444797       25.0042988744  MEOH      1115            0.0000000000
     26027      1807  MEOH      O1            -36.0179680782      -30.4952080778       24.0462240044  MEOH      1115            0.0000000000
     26028      1807  MEOH      DO1           -36.0154270736      -30.4918491996       24.0500195953  MEOH      1115            0.0000000000
     26029      1807  MEOH      HO1           -36.7152181839      -29.8402803022       24.2068848268  MEOH      1115            0.0000000000
     26030      1807  MEOH      HO2           -35.0800263509      -30.2481603727       24.0347023895  MEOH      1115            0.0000000000
     26031      1807  MEOH      H1A           -35.5026082698      -32.4002946623       24.7331303184  MEOH      1115            0.0000000000
     26032      1807  MEOH      H1B           -37.2105608334      -31.9078677253       25.0285853431  MEOH      1115            0.0000000000
     26033      1807  MEOH      H1C           -35.8808137466      -31.2031374164       26.0257071762  MEOH      1115            0.0000000000
     26034      1807  MEOH      LP1A          -35.8025243167      -30.2485813724       24.1697523565  MEOH      1115            0.0000000000
     26035      1807  MEOH      LP1B          -36.2006181940      -30.5712743829       23.7575150637  MEOH      1115            0.0000000000
     26036      1808  MEOH      C1            -16.8351748162      -10.0450438911       24.8406040205  MEOH      1116            0.0000000000
     26037      1808  MEOH      DC1           -16.8302556929      -10.0624473744       24.8418018362  MEOH      1116            0.0000000000
     26038      1808  MEOH      O1            -17.8169718504      -10.7741162689       25.5728551442  MEOH      1116            0.0000000000
     26039      1808  MEOH      DO1           -17.8216829451      -10.7799798531       25.5643328443  MEOH      1116            0.0000000000
     26040      1808  MEOH      HO1           -18.0490097856      -10.2238851824       26.3372530433  MEOH      1116            0.0000000000
     26041      1808  MEOH      HO2           -18.4951990297      -11.0174768427       24.9234835054  MEOH      1116            0.0000000000
     26042      1808  MEOH      H1A           -16.4660490602      -10.6472426910       23.9830354905  MEOH      1116            0.0000000000
     26043      1808  MEOH      H1B           -15.9813914981       -9.7855629620       25.5024534698  MEOH      1116            0.0000000000
     26044      1808  MEOH      H1C           -17.2896294344       -9.1160379000       24.4347224264  MEOH      1116            0.0000000000
     26045      1808  MEOH      LP1A          -18.1370030917      -10.6957765572       25.4547751115  MEOH      1116            0.0000000000
     26046      1808  MEOH      LP1B          -17.6612914715      -10.9834073374       25.8062236688  MEOH      1116            0.0000000000
     26047      1809  MEOH      C1            -35.2253476012      -30.0867884468      -20.5294228414  MEOH      1117            0.0000000000
     26048      1809  MEOH      DC1           -35.2547409780      -30.0925587521      -20.5363541244  MEOH      1117            0.0000000000
     26049      1809  MEOH      O1            -36.6028785102      -29.8445722289      -20.8230775487  MEOH      1117            0.0000000000
     26050      1809  MEOH      DO1           -36.6149531822      -29.8477582105      -20.8336649747  MEOH      1117            0.0000000000
     26051      1809  MEOH      HO1           -36.9848846585      -29.4242627876      -20.0367498331  MEOH      1117            0.0000000000
     26052      1809  MEOH      HO2           -36.6119701668      -29.3817636141      -21.6755008757  MEOH      1117            0.0000000000
     26053      1809  MEOH      H1A           -34.7329751077      -30.6166171215      -21.3727329289  MEOH      1117            0.0000000000
     26054      1809  MEOH      H1B           -35.1206907273      -30.6882734765      -19.6012075120  MEOH      1117            0.0000000000
     26055      1809  MEOH      H1C           -34.6838015319      -29.1270500368      -20.3881746915  MEOH      1117            0.0000000000
     26056      1809  MEOH      LP1A          -36.6398414546      -29.5306305847      -20.9733252935  MEOH      1117            0.0000000000
     26057      1809  MEOH      LP1B          -36.7952706690      -30.1225477609      -20.7324416792  MEOH      1117            0.0000000000
     26058      1810  MEOH      C1             33.3239064489       -5.3416506656       32.8129989149  MEOH      1118            0.0000000000
     26059      1810  MEOH      DC1            33.3302889133       -5.3473252871       32.8083775517  MEOH      1118            0.0000000000
     26060      1810  MEOH      O1             32.3978120803       -4.3196103867       33.1936970460  MEOH      1118            0.0000000000
     26061      1810  MEOH      DO1            32.4089721162       -4.3198356864       33.1907704707  MEOH      1118            0.0000000000
     26062      1810  MEOH      HO1            31.5110453613       -4.7109789453       33.2307839344  MEOH      1118            0.0000000000
     26063      1810  MEOH      HO2            32.7694214909       -3.9113715110       33.9912855783  MEOH      1118            0.0000000000
     26064      1810  MEOH      H1A            34.3417807846       -4.9059053035       32.7214630375  MEOH      1118            0.0000000000
     26065      1810  MEOH      H1B            33.0335612972       -5.7767928762       31.8328601751  MEOH      1118            0.0000000000
     26066      1810  MEOH      H1C            33.3413777109       -6.1390804946       33.5863820181  MEOH      1118            0.0000000000
     26067      1810  MEOH      LP1A           32.3712669395       -4.3059781653       33.5424226086  MEOH      1118            0.0000000000
     26068      1810  MEOH      LP1B           32.2779913706       -4.1546369765       32.9092207351  MEOH      1118            0.0000000000
     26069      1811  MEOH      C1            -27.1939313599       18.6551558045       25.5099776855  MEOH      1119            0.0000000000
     26070      1811  MEOH      DC1           -27.1986223590       18.6748411644       25.5053451303  MEOH      1119            0.0000000000
     26071      1811  MEOH      O1            -26.4113906839       17.5102369809       25.2001035986  MEOH      1119            0.0000000000
     26072      1811  MEOH      DO1           -26.4188894640       17.5266560785       25.2059657825  MEOH      1119            0.0000000000
     26073      1811  MEOH      HO1           -26.6622584504       16.7899439674       25.7993892891  MEOH      1119            0.0000000000
     26074      1811  MEOH      HO2           -26.5024973987       17.3797082637       24.2432536519  MEOH      1119            0.0000000000
     26075      1811  MEOH      H1A           -26.8742537690       19.5075818118       24.8731911122  MEOH      1119            0.0000000000
     26076      1811  MEOH      H1B           -27.0446140970       18.9215022213       26.5781934611  MEOH      1119            0.0000000000
     26077      1811  MEOH      H1C           -28.2675641419       18.4469312157       25.3143347181  MEOH      1119            0.0000000000
     26078      1811  MEOH      LP1A          -26.5719064823       17.3181620915       24.9554775261  MEOH      1119            0.0000000000
     26079      1811  MEOH      LP1B          -26.1137509549       17.5152770704       25.3841829001  MEOH      1119            0.0000000000
     26080      1812  MEOH      C1              4.8453188940       18.9188282459      -24.2593872768  MEOH      1120            0.0000000000
     26081      1812  MEOH      DC1             4.8651898653       18.9073690464      -24.2687285516  MEOH      1120            0.0000000000
     26082      1812  MEOH      O1              3.7678710176       19.8366953283      -24.3681433112  MEOH      1120            0.0000000000
     26083      1812  MEOH      DO1             3.7818707648       19.8268917606      -24.3743201872  MEOH      1120            0.0000000000
     26084      1812  MEOH      HO1             3.6766987208       20.1461511137      -25.2829245578  MEOH      1120            0.0000000000
     26085      1812  MEOH      HO2             3.0224030754       19.4287244976      -23.9004496624  MEOH      1120            0.0000000000
     26086      1812  MEOH      H1A             4.9759342648       18.6333872758      -23.1936555658  MEOH      1120            0.0000000000
     26087      1812  MEOH      H1B             5.7871923114       19.3888405313      -24.6147517626  MEOH      1120            0.0000000000
     26088      1812  MEOH      H1C             4.6129069126       18.0069250063      -24.8499278363  MEOH      1120            0.0000000000
     26089      1812  MEOH      LP1A            3.4704968851       19.6647942813      -24.4353642555  MEOH      1120            0.0000000000
     26090      1812  MEOH      LP1B            3.8814295730       20.1622587695      -24.3080359053  MEOH      1120            0.0000000000
     26091      1813  MEOH      C1             -4.0696775888      -34.5753403958        2.1982751245  MEOH      1121            0.0000000000
     26092      1813  MEOH      DC1            -4.0825229271      -34.5819514995        2.2004215675  MEOH      1121            0.0000000000
     26093      1813  MEOH      O1             -5.1350716460      -35.4999864880        2.4206576620  MEOH      1121            0.0000000000
     26094      1813  MEOH      DO1            -5.1517834018      -35.5067073068        2.4201339902  MEOH      1121            0.0000000000
     26095      1813  MEOH      HO1            -5.7434218582      -35.3697333489        1.6764506082  MEOH      1121            0.0000000000
     26096      1813  MEOH      HO2            -4.7069579673      -36.3572725545        2.5712540727  MEOH      1121            0.0000000000
     26097      1813  MEOH      H1A            -3.4138396530      -34.5315939532        3.0939781177  MEOH      1121            0.0000000000
     26098      1813  MEOH      H1B            -4.4709186096      -33.5580250131        2.0023260091  MEOH      1121            0.0000000000
     26099      1813  MEOH      H1C            -3.4787688617      -34.8745270824        1.3062912667  MEOH      1121            0.0000000000
     26100      1813  MEOH      LP1A           -5.0596902572      -35.8075708477        2.2716291148  MEOH      1121            0.0000000000
     26101      1813  MEOH      LP1B           -5.3839210277      -35.3510244244        2.6165767494  MEOH      1121            0.0000000000
     26102      1814  MEOH      C1            -13.6995606907       25.5581789162      -36.5234820826  MEOH      1122            0.0000000000
     26103      1814  MEOH      DC1           -13.7057989328       25.5407226751      -36.5306700259  MEOH      1122            0.0000000000
     26104      1814  MEOH      O1            -15.0295763534       25.6944082164      -37.0162360716  MEOH      1122            0.0000000000
     26105      1814  MEOH      DO1           -15.0282739004       25.6840270769      -37.0246984538  MEOH      1122            0.0000000000
     26106      1814  MEOH      HO1           -15.6522089630       25.2864014819      -36.3943364501  MEOH      1122            0.0000000000
     26107      1814  MEOH      HO2           -15.1338737922       26.6047875207      -37.3344051565  MEOH      1122            0.0000000000
     26108      1814  MEOH      H1A           -13.0092436918       25.9533074914      -37.2991475066  MEOH      1122            0.0000000000
     26109      1814  MEOH      H1B           -13.4549611263       24.4930621629      -36.3234361968  MEOH      1122            0.0000000000
     26110      1814  MEOH      H1C           -13.5511175774       26.1533012926      -35.5971371146  MEOH      1122            0.0000000000
     26111      1814  MEOH      LP1A          -15.1687170504       25.9951899359      -36.9036739835  MEOH      1122            0.0000000000
     26112      1814  MEOH      LP1B          -15.1099199741       25.4220384968      -37.2208323532  MEOH      1122            0.0000000000
     26113      1815  MEOH      C1             23.2316451100       16.8621652902       21.8151015775  MEOH      1123            0.0000000000
     26114      1815  MEOH      DC1            23.2315535907       16.8875259266       21.8086047826  MEOH      1123            0.0000000000
     26115      1815  MEOH      O1             23.1242531003       17.0088983075       23.2315153402  MEOH      1123            0.0000000000
     26116      1815  MEOH      DO1            23.1207867798       17.0318966573       23.2193102078  MEOH      1123            0.0000000000
     26117      1815  MEOH      HO1            23.9989903330       16.8845410033       23.6318527422  MEOH      1123            0.0000000000
     26118      1815  MEOH      HO2            22.5675689756       17.7841025589       23.4048968674  MEOH      1123            0.0000000000
     26119      1815  MEOH      H1A            22.2235216678       16.6664659636       21.3911795336  MEOH      1123            0.0000000000
     26120      1815  MEOH      H1B            23.8831425254       15.9962558253       21.5700038086  MEOH      1123            0.0000000000
     26121      1815  MEOH      H1C            23.6611031276       17.7814392540       21.3625287187  MEOH      1123            0.0000000000
     26122      1815  MEOH      LP1A           23.1686550612       17.3443887081       23.3208162752  MEOH      1123            0.0000000000
     26123      1815  MEOH      LP1B           23.0505862206       16.6999763101       23.3786220715  MEOH      1123            0.0000000000
     26124      1816  MEOH      C1             15.0528243460      -28.3914291676        3.5501883381  MEOH      1124            0.0000000000
     26125      1816  MEOH      DC1            15.0623639206      -28.3906409597        3.5478219656  MEOH      1124            0.0000000000
     26126      1816  MEOH      O1             16.3966842038      -27.9198815792        3.4074736290  MEOH      1124            0.0000000000
     26127      1816  MEOH      DO1            16.4033164133      -27.9202603697        3.4047986555  MEOH      1124            0.0000000000
     26128      1816  MEOH      HO1            16.3499802217      -26.9720359936        3.2067063907  MEOH      1124            0.0000000000
     26129      1816  MEOH      HO2            16.8769709589      -28.2356144129        4.1888425633  MEOH      1124            0.0000000000
     26130      1816  MEOH      H1A            15.0495959177      -29.4944711681        3.6828869549  MEOH      1124            0.0000000000
     26131      1816  MEOH      H1B            14.4683773263      -28.1358804271        2.6405524096  MEOH      1124            0.0000000000
     26132      1816  MEOH      H1C            14.5722497120      -27.9181236298        4.4329968623  MEOH      1124            0.0000000000
     26133      1816  MEOH      LP1A           16.5211161679      -27.8171452680        3.7180568492  MEOH      1124            0.0000000000
     26134      1816  MEOH      LP1B           16.5009724640      -27.9543144720        3.0751509926  MEOH      1124            0.0000000000
     26135      1817  MEOH      C1             17.3024456945      -31.9612899150      -26.8799069682  MEOH      1125            0.0000000000
     26136      1817  MEOH      DC1            17.3004894308      -31.9695052653      -26.8797686284  MEOH      1125            0.0000000000
     26137      1817  MEOH      O1             16.7700750215      -31.0678781433      -27.8585185383  MEOH      1125            0.0000000000
     26138      1817  MEOH      DO1            16.7692142111      -31.0696059092      -27.8588190941  MEOH      1125            0.0000000000
     26139      1817  MEOH      HO1            16.8362276722      -30.1777555963      -27.4787743105  MEOH      1125            0.0000000000
     26140      1817  MEOH      HO2            17.2359987176      -31.2709329943      -28.6847048593  MEOH      1125            0.0000000000
     26141      1817  MEOH      H1A            17.2384714974      -33.0078419083      -27.2472722219  MEOH      1125            0.0000000000
     26142      1817  MEOH      H1B            16.7196972759      -31.8746807078      -25.9379812138  MEOH      1125            0.0000000000
     26143      1817  MEOH      H1C            18.3675622477      -31.7206675152      -26.6750934218  MEOH      1125            0.0000000000
     26144      1817  MEOH      LP1A           17.0237592020      -30.9634366777      -28.0758577129  MEOH      1125            0.0000000000
     26145      1817  MEOH      LP1B           16.4250715773      -31.0314134283      -27.8122265517  MEOH      1125            0.0000000000
     26146      1818  MEOH      C1             -5.4611821445      -19.1538216416       31.7970389227  MEOH      1126            0.0000000000
     26147      1818  MEOH      DC1            -5.4488675678      -19.1915020832       31.7931110663  MEOH      1126            0.0000000000
     26148      1818  MEOH      O1             -4.8837959221      -20.4510109400       31.6738049949  MEOH      1126            0.0000000000
     26149      1818  MEOH      DO1            -4.8811892457      -20.4874009892       31.6732140453  MEOH      1126            0.0000000000
     26150      1818  MEOH      HO1            -4.0472114872      -20.3858299190       32.1604033091  MEOH      1126            0.0000000000
     26151      1818  MEOH      HO2            -5.5707721127      -21.0861104607       31.9299539992  MEOH      1126            0.0000000000
     26152      1818  MEOH      H1A            -6.3529137276      -19.0748284198       31.1390907070  MEOH      1126            0.0000000000
     26153      1818  MEOH      H1B            -4.7265806728      -18.3770404404       31.4948921949  MEOH      1126            0.0000000000
     26154      1818  MEOH      H1C            -5.7684717530      -18.9634284768       32.8475838003  MEOH      1126            0.0000000000
     26155      1818  MEOH      LP1A           -4.9927060988      -20.6559024737       31.9358317738  MEOH      1126            0.0000000000
     26156      1818  MEOH      LP1B           -4.6869316254      -20.4674603458       31.3848865536  MEOH      1126            0.0000000000
     26157      1819  MEOH      C1             -8.1399451645      -13.0606117005      -36.2068835061  MEOH      1127            0.0000000000
     26158      1819  MEOH      DC1            -8.1424816860      -13.0464960572      -36.2086794881  MEOH      1127            0.0000000000
     26159      1819  MEOH      O1             -6.8003718640      -12.8335235626      -36.6455947482  MEOH      1127            0.0000000000
     26160      1819  MEOH      DO1            -6.7951304909      -12.8371186535      -36.6488510477  MEOH      1127            0.0000000000
     26161      1819  MEOH      HO1            -6.8517393840      -12.4562937393      -37.5377601131  MEOH      1127            0.0000000000
     26162      1819  MEOH      HO2            -6.3241694644      -13.6646479727      -36.4927435460  MEOH      1127            0.0000000000
     26163      1819  MEOH      H1A            -8.2701835102      -14.1313826023      -35.9407845566  MEOH      1127            0.0000000000
     26164      1819  MEOH      H1B            -8.8620224089      -12.8181319047      -37.0156659257  MEOH      1127            0.0000000000
     26165      1819  MEOH      H1C            -8.3453837330      -12.4446825410      -35.3053585396  MEOH      1127            0.0000000000
     26166      1819  MEOH      LP1A           -6.6952991062      -12.5139677485      -36.5489314291  MEOH      1127            0.0000000000
     26167      1819  MEOH      LP1B           -6.6768588580      -13.1191088628      -36.8058619427  MEOH      1127            0.0000000000
     26168      1820  MEOH      C1             17.2523863902       -2.5363754302       20.0940641686  MEOH      1128            0.0000000000
     26169      1820  MEOH      DC1            17.2520637791       -2.5415326862       20.0854390412  MEOH      1128            0.0000000000
     26170      1820  MEOH      O1             17.3711143963       -1.1864330891       19.6391431311  MEOH      1128            0.0000000000
     26171      1820  MEOH      DO1            17.3784960837       -1.1873559577       19.6362614286  MEOH      1128            0.0000000000
     26172      1820  MEOH      HO1            16.9705733519       -0.6212338137       20.3181252008  MEOH      1128            0.0000000000
     26173      1820  MEOH      HO2            18.2936332513       -1.0724640043       19.3618887149  MEOH      1128            0.0000000000
     26174      1820  MEOH      H1A            17.5866953400       -3.2323939004       19.2952420258  MEOH      1128            0.0000000000
     26175      1820  MEOH      H1B            16.1947456774       -2.7571648188       20.3528481879  MEOH      1128            0.0000000000
     26176      1820  MEOH      H1C            17.8791256753       -2.6854249716       20.9992178042  MEOH      1128            0.0000000000
     26177      1820  MEOH      LP1A           17.6748335994       -1.0500189419       19.7470589599  MEOH      1128            0.0000000000
     26178      1820  MEOH      LP1B           17.0925309718       -1.1004251524       19.4455096877  MEOH      1128            0.0000000000
     26179      1821  MEOH      C1              8.2577656989      -28.0179612386      -17.4549632437  MEOH      1129            0.0000000000
     26180      1821  MEOH      DC1             8.2696064311      -28.0417678969      -17.4501515671  MEOH      1129            0.0000000000
     26181      1821  MEOH      O1              7.4276012175      -26.9802060201      -16.9416830050  MEOH      1129            0.0000000000
     26182      1821  MEOH      DO1             7.4352856013      -26.9990126628      -16.9221398098  MEOH      1129            0.0000000000
     26183      1821  MEOH      HO1             6.4894635512      -27.1960320015      -17.0609174999  MEOH      1129            0.0000000000
     26184      1821  MEOH      HO2             7.8313922010      -26.6090644597      -16.1416162674  MEOH      1129            0.0000000000
     26185      1821  MEOH      H1A             9.2462399076      -27.5846154359      -17.7184991122  MEOH      1129            0.0000000000
     26186      1821  MEOH      H1B             7.8035922564      -28.4458320144      -18.3741879633  MEOH      1129            0.0000000000
     26187      1821  MEOH      H1C             8.3871625463      -28.8009249966      -16.6774381894  MEOH      1129            0.0000000000
     26188      1821  MEOH      LP1A            7.3592083111      -27.0379403362      -16.6033205380  MEOH      1129            0.0000000000
     26189      1821  MEOH      LP1B            7.3658105644      -26.7421401214      -17.1906941355  MEOH      1129            0.0000000000
     26190      1822  MEOH      C1             -8.6056617757       -7.1479161759       36.6935562580  MEOH      1130            0.0000000000
     26191      1822  MEOH      DC1            -8.6063467152       -7.1681843428       36.6869482968  MEOH      1130            0.0000000000
     26192      1822  MEOH      O1             -9.4941005809       -6.2311022661       36.0505156861  MEOH      1130            0.0000000000
     26193      1822  MEOH      DO1            -9.4966138439       -6.2535460764       36.0415587275  MEOH      1130            0.0000000000
     26194      1822  MEOH      HO1           -10.0674129135       -5.8578583175       36.7381943354  MEOH      1130            0.0000000000
     26195      1822  MEOH      HO2            -8.9221273595       -5.6202674039       35.5599778128  MEOH      1130            0.0000000000
     26196      1822  MEOH      H1A            -7.8480068800       -7.5017658322       35.9620711380  MEOH      1130            0.0000000000
     26197      1822  MEOH      H1B            -9.1723592406       -8.0165073552       37.0919585002  MEOH      1130            0.0000000000
     26198      1822  MEOH      H1C            -8.0853792096       -6.6328799061       37.5292384313  MEOH      1130            0.0000000000
     26199      1822  MEOH      LP1A           -9.3499773006       -5.9123343664       36.0397683036  MEOH      1130            0.0000000000
     26200      1822  MEOH      LP1B           -9.7821270205       -6.3986659291       35.9434494034  MEOH      1130            0.0000000000
     26201      1823  MEOH      C1            -20.1630108702       22.5226586788      -26.5423610700  MEOH      1131            0.0000000000
     26202      1823  MEOH      DC1           -20.1649855940       22.5211367077      -26.5427530841  MEOH      1131            0.0000000000
     26203      1823  MEOH      O1            -19.6430594351       22.7536385929      -25.2316027084  MEOH      1131            0.0000000000
     26204      1823  MEOH      DO1           -19.6389894315       22.7513599363      -25.2352525820  MEOH      1131            0.0000000000
     26205      1823  MEOH      HO1           -18.6963711100       22.9442194603      -25.3230365540  MEOH      1131            0.0000000000
     26206      1823  MEOH      HO2           -20.2260706702       23.4152502260      -24.8275384218  MEOH      1131            0.0000000000
     26207      1823  MEOH      H1A           -21.2461367139       22.2847493808      -26.4748438629  MEOH      1131            0.0000000000
     26208      1823  MEOH      H1B           -19.6303503063       21.6764792727      -27.0266896119  MEOH      1131            0.0000000000
     26209      1823  MEOH      H1C           -20.0459169732       23.4353428576      -27.1649505099  MEOH      1131            0.0000000000
     26210      1823  MEOH      LP1A          -19.6721066551       23.0925845652      -25.1493112335  MEOH      1131            0.0000000000
     26211      1823  MEOH      LP1B          -19.5373252906       22.4516130383      -25.0898252240  MEOH      1131            0.0000000000
     26212      1824  MEOH      C1            -19.6139130594      -29.7521748027      -17.5057438577  MEOH      1132            0.0000000000
     26213      1824  MEOH      DC1           -19.6056891696      -29.7565295847      -17.4949005988  MEOH      1132            0.0000000000
     26214      1824  MEOH      O1            -19.5975615281      -31.1602029525      -17.2715550502  MEOH      1132            0.0000000000
     26215      1824  MEOH      DO1           -19.5934912436      -31.1640372568      -17.2713850320  MEOH      1132            0.0000000000
     26216      1824  MEOH      HO1           -19.9930187535      -31.5754268535      -18.0539249722  MEOH      1132            0.0000000000
     26217      1824  MEOH      HO2           -18.6932069697      -31.3784178446      -16.9969187549  MEOH      1132            0.0000000000
     26218      1824  MEOH      H1A           -19.2794354994      -29.2155633737      -16.5922374605  MEOH      1132            0.0000000000
     26219      1824  MEOH      H1B           -20.6440674647      -29.4226067120      -17.7596882926  MEOH      1132            0.0000000000
     26220      1824  MEOH      H1C           -18.9316718676      -29.4992166969      -18.3453152680  MEOH      1132            0.0000000000
     26221      1824  MEOH      LP1A          -19.2966721373      -31.2971795215      -17.3864593323  MEOH      1132            0.0000000000
     26222      1824  MEOH      LP1B          -19.8907862135      -31.2576234237      -17.1071514745  MEOH      1132            0.0000000000
     26223      1825  MEOH      C1            -30.9429049901      -17.7004401719       26.8978406994  MEOH      1133            0.0000000000
     26224      1825  MEOH      DC1           -30.9435302343      -17.7007190211       26.9028372519  MEOH      1133            0.0000000000
     26225      1825  MEOH      O1            -31.4976858492      -16.9427199244       27.9779469619  MEOH      1133            0.0000000000
     26226      1825  MEOH      DO1           -31.4949507028      -16.9328356964       27.9727230539  MEOH      1133            0.0000000000
     26227      1825  MEOH      HO1           -32.4213085959      -16.7391968754       27.7625417821  MEOH      1133            0.0000000000
     26228      1825  MEOH      HO2           -31.2839809647      -17.4303397344       28.7887842719  MEOH      1133            0.0000000000
     26229      1825  MEOH      H1A           -29.8698868571      -17.8992490653       27.1062348219  MEOH      1133            0.0000000000
     26230      1825  MEOH      H1B           -31.0126325027      -17.1267182214       25.9489981414  MEOH      1133            0.0000000000
     26231      1825  MEOH      H1C           -31.4809873117      -18.6660530194       26.7865741523  MEOH      1133            0.0000000000
     26232      1825  MEOH      LP1A          -31.6345778865      -17.1581724737       28.2174062886  MEOH      1133            0.0000000000
     26233      1825  MEOH      LP1B          -31.4435503560      -16.6010569646       27.9246950112  MEOH      1133            0.0000000000
     26234      1826  MEOH      C1             26.4874062324      -29.9793328123      -25.8973749949  MEOH      1134            0.0000000000
     26235      1826  MEOH      DC1            26.4983548392      -29.9825004456      -25.8938920210  MEOH      1134            0.0000000000
     26236      1826  MEOH      O1             25.2729911386      -30.4307557730      -26.4938674161  MEOH      1134            0.0000000000
     26237      1826  MEOH      DO1            25.2818978777      -30.4330601141      -26.4876267208  MEOH      1134            0.0000000000
     26238      1826  MEOH      HO1            24.5485114926      -30.2260638873      -25.8822053560  MEOH      1134            0.0000000000
     26239      1826  MEOH      HO2            25.2650097400      -30.0625252232      -27.3912205012  MEOH      1134            0.0000000000
     26240      1826  MEOH      H1A            27.3416215463      -30.2900052857      -26.5362175518  MEOH      1134            0.0000000000
     26241      1826  MEOH      H1B            26.6069344125      -30.4304465773      -24.8891436795  MEOH      1134            0.0000000000
     26242      1826  MEOH      H1C            26.4824807052      -28.8712631342      -25.8168869264  MEOH      1134            0.0000000000
     26243      1826  MEOH      LP1A           25.1355580300      -30.1772149434      -26.6921832964  MEOH      1134            0.0000000000
     26244      1826  MEOH      LP1B           25.2124486992      -30.7637794036      -26.4048175732  MEOH      1134            0.0000000000
     26245      1827  MEOH      C1            -20.7597770280       -0.8548393852      -33.1661083730  MEOH      1135            0.0000000000
     26246      1827  MEOH      DC1           -20.7732652640       -0.8691666915      -33.1715735240  MEOH      1135            0.0000000000
     26247      1827  MEOH      O1            -21.3164852696       -1.3294771991      -34.3934685098  MEOH      1135            0.0000000000
     26248      1827  MEOH      DO1           -21.3275305825       -1.3391948498      -34.4024086955  MEOH      1135            0.0000000000
     26249      1827  MEOH      HO1           -22.2796246833       -1.3246031170      -34.2784089034  MEOH      1135            0.0000000000
     26250      1827  MEOH      HO2           -20.9200909700       -0.7818500531      -35.0890805200  MEOH      1135            0.0000000000
     26251      1827  MEOH      H1A           -19.6595080206       -1.0083542759      -33.1533690258  MEOH      1135            0.0000000000
     26252      1827  MEOH      H1B           -21.1667437626       -1.4329713363      -32.3091004824  MEOH      1135            0.0000000000
     26253      1827  MEOH      H1C           -20.9838898384        0.2254944197      -33.0358266849  MEOH      1135            0.0000000000
     26254      1827  MEOH      LP1A          -21.3698740623       -1.0615339752      -34.6122288024  MEOH      1135            0.0000000000
     26255      1827  MEOH      LP1B          -21.3458124255       -1.6781359487      -34.3846938737  MEOH      1135            0.0000000000
     26256      1828  MEOH      C1             20.2069995778      -15.2078165647       -1.8456941446  MEOH      1136            0.0000000000
     26257      1828  MEOH      DC1            20.1926884663      -15.2033445142       -1.8532182984  MEOH      1136            0.0000000000
     26258      1828  MEOH      O1             21.3551991550      -15.3036713344       -1.0038496135  MEOH      1136            0.0000000000
     26259      1828  MEOH      DO1            21.3386623177      -15.2779387353       -1.0030504579  MEOH      1136            0.0000000000
     26260      1828  MEOH      HO1            22.1527993337      -15.3237262939       -1.5555123307  MEOH      1136            0.0000000000
     26261      1828  MEOH      HO2            21.2368582027      -14.6702852324       -0.2787858468  MEOH      1136            0.0000000000
     26262      1828  MEOH      H1A            19.3084688885      -15.4346280147       -1.2328971418  MEOH      1136            0.0000000000
     26263      1828  MEOH      H1B            20.2661567163      -15.9533722153       -2.6672586316  MEOH      1136            0.0000000000
     26264      1828  MEOH      H1C            20.1257526160      -14.1828696534       -2.2666499151  MEOH      1136            0.0000000000
     26265      1828  MEOH      LP1A           21.4656670364      -14.9836212690       -0.9151658902  MEOH      1136            0.0000000000
     26266      1828  MEOH      LP1B           21.4305846112      -15.6398197670       -0.9420332384  MEOH      1136            0.0000000000
     26267      1829  MEOH      C1             36.0651948908      -26.4863041625       22.0232681455  MEOH      1137            0.0000000000
     26268      1829  MEOH      DC1            36.0596909156      -26.4783087346       22.0163551948  MEOH      1137            0.0000000000
     26269      1829  MEOH      O1             36.9926484504      -27.4555707658       21.5392960243  MEOH      1137            0.0000000000
     26270      1829  MEOH      DO1            36.9770985967      -27.4691083017       21.5321402809  MEOH      1137            0.0000000000
     26271      1829  MEOH      HO1            37.1800626144      -28.0678285095       22.2679361193  MEOH      1137            0.0000000000
     26272      1829  MEOH      HO2            36.6977553616      -27.7298536382       20.6568522741  MEOH      1137            0.0000000000
     26273      1829  MEOH      H1A            36.1528774034      -25.5581785644       21.4189373991  MEOH      1137            0.0000000000
     26274      1829  MEOH      H1B            36.2569295743      -26.2331881248       23.0879235282  MEOH      1137            0.0000000000
     26275      1829  MEOH      H1C            35.0377490639      -26.9057538231       21.9709417107  MEOH      1137            0.0000000000
     26276      1829  MEOH      LP1A           36.8207004349      -27.7253400385       21.3973156753  MEOH      1137            0.0000000000
     26277      1829  MEOH      LP1B           37.3203137237      -27.3433735762       21.5897664044  MEOH      1137            0.0000000000
     26278      1830  MEOH      C1             32.1439589423        5.4105680929      -30.3518788104  MEOH      1138            0.0000000000
     26279      1830  MEOH      DC1            32.1487007180        5.4031339332      -30.3495241065  MEOH      1138            0.0000000000
     26280      1830  MEOH      O1             32.0626434193        4.0270964182      -30.7069736719  MEOH      1138            0.0000000000
     26281      1830  MEOH      DO1            32.0644357648        4.0192990690      -30.7078978827  MEOH      1138            0.0000000000
     26282      1830  MEOH      HO1            32.9369362315        3.7698462643      -31.0391399507  MEOH      1138            0.0000000000
     26283      1830  MEOH      HO2            31.6732559729        3.5776757330      -29.9406196640  MEOH      1138            0.0000000000
     26284      1830  MEOH      H1A            31.1364242802        5.7850433932      -30.0708749742  MEOH      1138            0.0000000000
     26285      1830  MEOH      H1B            32.5151416993        6.0065378817      -31.2129039974  MEOH      1138            0.0000000000
     26286      1830  MEOH      H1C            32.8305441338        5.5426383900      -29.4884674303  MEOH      1138            0.0000000000
     26287      1830  MEOH      LP1A           32.1415087243        3.8276767631      -30.4303655288  MEOH      1138            0.0000000000
     26288      1830  MEOH      LP1B           31.9591595116        3.9948082182      -31.0397627237  MEOH      1138            0.0000000000
     26289      1831  MEOH      C1              4.0077791131       -3.1233816681        5.0034081710  MEOH      1139            0.0000000000
     26290      1831  MEOH      DC1             4.0266401021       -3.1226591337        4.9926572209  MEOH      1139            0.0000000000
     26291      1831  MEOH      O1              5.2152168396       -2.3638761920        5.0833611830  MEOH      1139            0.0000000000
     26292      1831  MEOH      DO1             5.2208695105       -2.3559923212        5.0654072476  MEOH      1139            0.0000000000
     26293      1831  MEOH      HO1             5.8405938513       -2.8581802357        5.6360519705  MEOH      1139            0.0000000000
     26294      1831  MEOH      HO2             5.4190936701       -2.0345228998        4.1940577214  MEOH      1139            0.0000000000
     26295      1831  MEOH      H1A             3.1720135888       -2.4680763942        4.6772303263  MEOH      1139            0.0000000000
     26296      1831  MEOH      H1B             3.7384891959       -3.5335307515        6.0001938410  MEOH      1139            0.0000000000
     26297      1831  MEOH      H1C             4.1147464013       -3.9521774511        4.2713039774  MEOH      1139            0.0000000000
     26298      1831  MEOH      LP1A            5.4285285300       -2.4500477387        4.8195950228  MEOH      1139            0.0000000000
     26299      1831  MEOH      LP1B            5.1995860664       -2.1423244234        5.3538616317  MEOH      1139            0.0000000000
     26300      1832  MEOH      C1            -10.2381926739       -1.8068188998      -25.8652111478  MEOH      1140            0.0000000000
     26301      1832  MEOH      DC1           -10.2324265269       -1.8161718216      -25.8724774163  MEOH      1140            0.0000000000
     26302      1832  MEOH      O1             -9.0702353741       -1.3719644188      -26.5617083868  MEOH      1140            0.0000000000
     26303      1832  MEOH      DO1            -9.0682456989       -1.3828278535      -26.5683643937  MEOH      1140            0.0000000000
     26304      1832  MEOH      HO1            -9.3727936164       -0.9032868314      -27.3552446687  MEOH      1140            0.0000000000
     26305      1832  MEOH      HO2            -8.5503562644       -0.8841589728      -25.9039306446  MEOH      1140            0.0000000000
     26306      1832  MEOH      H1A            -9.9399120555       -2.3078159603      -24.9195094940  MEOH      1140            0.0000000000
     26307      1832  MEOH      H1B           -10.8175586918       -2.5212875732      -26.4882605309  MEOH      1140            0.0000000000
     26308      1832  MEOH      H1C           -10.8805999921       -0.9355902227      -25.6150223588  MEOH      1140            0.0000000000
     26309      1832  MEOH      LP1A           -8.9736331628       -1.0555289881      -26.4475303197  MEOH      1140            0.0000000000
     26310      1832  MEOH      LP1B           -8.9643801104       -1.6202121857      -26.7845709215  MEOH      1140            0.0000000000
     26311      1833  MEOH      C1            -11.0558042134      -30.0952008828      -36.3978203407  MEOH      1141            0.0000000000
     26312      1833  MEOH      DC1           -11.0639754182      -30.1035045305      -36.3933494472  MEOH      1141            0.0000000000
     26313      1833  MEOH      O1            -12.4022399026      -30.3295595395      -35.9765633942  MEOH      1141            0.0000000000
     26314      1833  MEOH      DO1           -12.4083828563      -30.3542508569      -35.9854902467  MEOH      1141            0.0000000000
     26315      1833  MEOH      HO1           -12.6019847691      -29.6512324906      -35.3125796571  MEOH      1141            0.0000000000
     26316      1833  MEOH      HO2           -12.9314647446      -30.4182507485      -36.7846196657  MEOH      1141            0.0000000000
     26317      1833  MEOH      H1A           -10.7402214171      -30.8753470090      -37.1231482122  MEOH      1141            0.0000000000
     26318      1833  MEOH      H1B           -10.3783787795      -30.1375578367      -35.5182626848  MEOH      1141            0.0000000000
     26319      1833  MEOH      H1C           -10.9761121352      -29.0952369239      -36.8753580412  MEOH      1141            0.0000000000
     26320      1833  MEOH      LP1A          -12.6243056395      -30.1536002673      -36.1820509682  MEOH      1141            0.0000000000
     26321      1833  MEOH      LP1B          -12.4062775857      -30.5536675708      -35.7077525176  MEOH      1141            0.0000000000
     26322      1834  MEOH      C1            -34.8527625903      -16.8948524908      -24.6682697620  MEOH      1142            0.0000000000
     26323      1834  MEOH      DC1           -34.8568319469      -16.8940077053      -24.6655377072  MEOH      1142            0.0000000000
     26324      1834  MEOH      O1            -35.0392185357      -18.1882094838      -24.0879596856  MEOH      1142            0.0000000000
     26325      1834  MEOH      DO1           -35.0403867031      -18.1834696850      -24.0813686150  MEOH      1142            0.0000000000
     26326      1834  MEOH      HO1           -35.5039096364      -18.7359813582      -24.7398094801  MEOH      1142            0.0000000000
     26327      1834  MEOH      HO2           -34.1708212633      -18.4612485649      -23.7529435090  MEOH      1142            0.0000000000
     26328      1834  MEOH      H1A           -34.4021468759      -16.2125378609      -23.9161306633  MEOH      1142            0.0000000000
     26329      1834  MEOH      H1B           -35.8224322080      -16.4643010415      -24.9979473070  MEOH      1142            0.0000000000
     26330      1834  MEOH      H1C           -34.1704967838      -16.9590003107      -25.5427521387  MEOH      1142            0.0000000000
     26331      1834  MEOH      LP1A          -34.7635686271      -18.3919856646      -24.1586165750  MEOH      1142            0.0000000000
     26332      1834  MEOH      LP1B          -35.3407955052      -18.1974774276      -23.9105746900  MEOH      1142            0.0000000000
     26333      1835  MEOH      C1            -35.0549617120        4.1985324869       23.2163502304  MEOH      1143            0.0000000000
     26334      1835  MEOH      DC1           -35.0603287523        4.1987094142       23.2135587221  MEOH      1143            0.0000000000
     26335      1835  MEOH      O1            -33.9034079388        3.3623261357       23.3560169474  MEOH      1143            0.0000000000
     26336      1835  MEOH      DO1           -33.9056674661        3.3618756623       23.3511451500  MEOH      1143            0.0000000000
     26337      1835  MEOH      HO1           -34.1056202980        2.6819140743       24.0171142090  MEOH      1143            0.0000000000
     26338      1835  MEOH      HO2           -33.6365582238        3.1169457927       22.4563060400  MEOH      1143            0.0000000000
     26339      1835  MEOH      H1A           -34.8020179218        5.0674737097       22.5719267729  MEOH      1143            0.0000000000
     26340      1835  MEOH      H1B           -35.3784255873        4.5804016488       24.2082514684  MEOH      1143            0.0000000000
     26341      1835  MEOH      H1C           -35.8865902215        3.6263691336       22.7522983806  MEOH      1143            0.0000000000
     26342      1835  MEOH      LP1A          -33.9183581516        3.0986656505       23.1263222813  MEOH      1143            0.0000000000
     26343      1835  MEOH      LP1B          -33.6901396364        3.4922708183       23.6012332003  MEOH      1143            0.0000000000
     26344      1836  MEOH      C1             28.5703809172      -27.3423563777       11.4948769789  MEOH      1144            0.0000000000
     26345      1836  MEOH      DC1            28.5688510790      -27.3341658409       11.4943430264  MEOH      1144            0.0000000000
     26346      1836  MEOH      O1             28.1659072267      -28.6899035436       11.7450170840  MEOH      1144            0.0000000000
     26347      1836  MEOH      DO1            28.1486570644      -28.6690861192       11.7572970398  MEOH      1144            0.0000000000
     26348      1836  MEOH      HO1            28.2826185563      -29.2007243406       10.9287202144  MEOH      1144            0.0000000000
     26349      1836  MEOH      HO2            28.7003696566      -28.9708156808       12.5041865527  MEOH      1144            0.0000000000
     26350      1836  MEOH      H1A            28.5731396588      -26.7822444948       12.4543497862  MEOH      1144            0.0000000000
     26351      1836  MEOH      H1B            27.8619980854      -26.8466665674       10.7971618669  MEOH      1144            0.0000000000
     26352      1836  MEOH      H1C            29.5928647207      -27.3223947321       11.0607693828  MEOH      1144            0.0000000000
     26353      1836  MEOH      LP1A           28.4376800484      -28.8766387457       11.8623605870  MEOH      1144            0.0000000000
     26354      1836  MEOH      LP1B           27.8238343992      -28.7261608303       11.6804292381  MEOH      1144            0.0000000000
     26355      1837  MEOH      C1            -18.4426582839       35.1127730581       25.3962690229  MEOH      1145            0.0000000000
     26356      1837  MEOH      DC1           -18.4396429709       35.1033395344       25.3992633277  MEOH      1145            0.0000000000
     26357      1837  MEOH      O1            -17.3430106741       34.2016192047       25.3780655184  MEOH      1145            0.0000000000
     26358      1837  MEOH      DO1           -17.3396660264       34.1971800614       25.3833288303  MEOH      1145            0.0000000000
     26359      1837  MEOH      HO1           -16.8551585256       34.3079698604       26.2096843127  MEOH      1145            0.0000000000
     26360      1837  MEOH      HO2           -17.7122642091       33.3423198730       25.1208564852  MEOH      1145            0.0000000000
     26361      1837  MEOH      H1A           -18.9950007096       35.0562261538       24.4339586295  MEOH      1145            0.0000000000
     26362      1837  MEOH      H1B           -18.0774518583       36.1525185027       25.5372465990  MEOH      1145            0.0000000000
     26363      1837  MEOH      H1C           -19.1311918463       34.8519355161       26.2282583933  MEOH      1145            0.0000000000
     26364      1837  MEOH      LP1A          -17.4409186177       33.8931573301       25.5113520762  MEOH      1145            0.0000000000
     26365      1837  MEOH      LP1B          -17.0639857256       34.3536619260       25.2313409839  MEOH      1145            0.0000000000
     26366      1838  MEOH      C1             26.1925115859      -17.9882044497      -33.4753418063  MEOH      1146            0.0000000000
     26367      1838  MEOH      DC1            26.1885904043      -17.9973913166      -33.4754653450  MEOH      1146            0.0000000000
     26368      1838  MEOH      O1             25.7227579655      -19.2480822565      -33.9583024688  MEOH      1146            0.0000000000
     26369      1838  MEOH      DO1            25.7216221596      -19.2505312182      -33.9633769253  MEOH      1146            0.0000000000
     26370      1838  MEOH      HO1            25.0627595954      -19.0799864710      -34.6489876057  MEOH      1146            0.0000000000
     26371      1838  MEOH      HO2            26.5094116851      -19.7884440500      -34.1317529182  MEOH      1146            0.0000000000
     26372      1838  MEOH      H1A            26.8601260800      -18.1482745238      -32.6018491279  MEOH      1146            0.0000000000
     26373      1838  MEOH      H1B            25.3362068619      -17.3568365836      -33.1552826910  MEOH      1146            0.0000000000
     26374      1838  MEOH      H1C            26.7568060482      -17.4595279194      -34.2730848023  MEOH      1146            0.0000000000
     26375      1838  MEOH      LP1A           25.9244629564      -19.3577731352      -34.2224672048  MEOH      1146            0.0000000000
     26376      1838  MEOH      LP1B           25.4493172021      -19.3549270461      -33.7677392512  MEOH      1146            0.0000000000
     26377      1839  MEOH      C1            -30.9429207661      -18.7577488320      -27.1838663087  MEOH      1147            0.0000000000
     26378      1839  MEOH      DC1           -30.9431114226      -18.7578036148      -27.1850626193  MEOH      1147            0.0000000000
     26379      1839  MEOH      O1            -30.2590724088      -19.9664957255      -26.8872145763  MEOH      1147            0.0000000000
     26380      1839  MEOH      DO1           -30.2625571367      -19.9644398246      -26.8897928967  MEOH      1147            0.0000000000
     26381      1839  MEOH      HO1           -29.4450770653      -19.9717201099      -27.4147411513  MEOH      1147            0.0000000000
     26382      1839  MEOH      HO2           -30.1935709034      -19.9842124948      -25.9195908535  MEOH      1147            0.0000000000
     26383      1839  MEOH      H1A           -31.9054883269      -18.7245901171      -26.6300746593  MEOH      1147            0.0000000000
     26384      1839  MEOH      H1B           -31.1524404411      -18.6812783847      -28.2722480324  MEOH      1147            0.0000000000
     26385      1839  MEOH      H1C           -30.3119159018      -17.9024367499      -26.8604546436  MEOH      1147            0.0000000000
     26386      1839  MEOH      LP1A          -30.0459143308      -19.9193989956      -26.6136354619  MEOH      1147            0.0000000000
     26387      1839  MEOH      LP1B          -30.3653171079      -20.2203257530      -27.1035069271  MEOH      1147            0.0000000000
     26388      1840  MEOH      C1            -17.9391071199       19.4958491114       28.2665716145  MEOH      1148            0.0000000000
     26389      1840  MEOH      DC1           -17.9326166039       19.5093183809       28.2807123602  MEOH      1148            0.0000000000
     26390      1840  MEOH      O1            -17.7573553552       19.4608229805       26.8486706638  MEOH      1148            0.0000000000
     26391      1840  MEOH      DO1           -17.7476750072       19.4681282790       26.8535678289  MEOH      1148            0.0000000000
     26392      1840  MEOH      HO1           -16.8911969487       19.8462982445       26.6435403712  MEOH      1148            0.0000000000
     26393      1840  MEOH      HO2           -17.9456266369       18.5469057072       26.5837005860  MEOH      1148            0.0000000000
     26394      1840  MEOH      H1A           -18.9347378302       19.0700933404       28.5151123830  MEOH      1148            0.0000000000
     26395      1840  MEOH      H1B           -17.8922818198       20.5440324961       28.6318659936  MEOH      1148            0.0000000000
     26396      1840  MEOH      H1C           -17.1578239480       18.8823191544       28.7640639237  MEOH      1148            0.0000000000
     26397      1840  MEOH      LP1A          -17.6090439462       19.1581290164       26.7544364340  MEOH      1148            0.0000000000
     26398      1840  MEOH      LP1B          -17.8855493324       19.7527554636       26.7043040142  MEOH      1148            0.0000000000
     26399      1841  MEOH      C1            -21.8121372236      -17.5016538731        7.1320691931  MEOH      1149            0.0000000000
     26400      1841  MEOH      DC1           -21.7871186277      -17.4958951014        7.1293091616  MEOH      1149            0.0000000000
     26401      1841  MEOH      O1            -20.5831464563      -17.6138458410        6.4063979689  MEOH      1149            0.0000000000
     26402      1841  MEOH      DO1           -20.5556339889      -17.6027256698        6.4229464411  MEOH      1149            0.0000000000
     26403      1841  MEOH      HO1           -20.8372944279      -17.8401219440        5.4980434484  MEOH      1149            0.0000000000
     26404      1841  MEOH      HO2           -20.0823315707      -16.8047929933        6.5948600074  MEOH      1149            0.0000000000
     26405      1841  MEOH      H1A           -21.6103004506      -17.4042006324        8.2202262517  MEOH      1149            0.0000000000
     26406      1841  MEOH      H1B           -22.4410749072      -18.4052199789        6.9826480330  MEOH      1149            0.0000000000
     26407      1841  MEOH      H1C           -22.3807972875      -16.6091617656        6.7938317472  MEOH      1149            0.0000000000
     26408      1841  MEOH      LP1A          -20.4927633019      -17.3022379277        6.2751295653  MEOH      1149            0.0000000000
     26409      1841  MEOH      LP1B          -20.4621414605      -17.9416862475        6.4258519891  MEOH      1149            0.0000000000
     26410      1842  MEOH      C1             -4.8589130952       -3.8440282767        6.2269535661  MEOH      1150            0.0000000000
     26411      1842  MEOH      DC1            -4.8318418764       -3.8407602783        6.2366629220  MEOH      1150            0.0000000000
     26412      1842  MEOH      O1             -5.8118297215       -4.0003486714        5.1747157334  MEOH      1150            0.0000000000
     26413      1842  MEOH      DO1            -5.7817138256       -4.0179033177        5.1797237836  MEOH      1150            0.0000000000
     26414      1842  MEOH      HO1            -6.6981010952       -3.9884836459        5.5687744517  MEOH      1150            0.0000000000
     26415      1842  MEOH      HO2            -5.5955858321       -3.3073412877        4.5313811800  MEOH      1150            0.0000000000
     26416      1842  MEOH      H1A            -3.8387939239       -3.7262207693        5.8029261263  MEOH      1150            0.0000000000
     26417      1842  MEOH      H1B            -4.8808788528       -4.7375049756        6.8869065151  MEOH      1150            0.0000000000
     26418      1842  MEOH      H1C            -5.1091326662       -2.9359963977        6.8161812579  MEOH      1150            0.0000000000
     26419      1842  MEOH      LP1A           -5.8996896304       -3.6872505594        5.0452931361  MEOH      1150            0.0000000000
     26420      1842  MEOH      LP1B           -5.8751728755       -4.3402075953        5.1200937902  MEOH      1150            0.0000000000
     26421      1843  MEOH      C1             -4.0279982667      -19.2316336504       16.0730376880  MEOH      1151            0.0000000000
     26422      1843  MEOH      DC1            -4.0222057895      -19.2486571670       16.0823957202  MEOH      1151            0.0000000000
     26423      1843  MEOH      O1             -3.4663531577      -20.3774614124       16.7134883899  MEOH      1151            0.0000000000
     26424      1843  MEOH      DO1            -3.4616179739      -20.3803782983       16.7433499339  MEOH      1151            0.0000000000
     26425      1843  MEOH      HO1            -2.5855611019      -20.1165466914       17.0249829556  MEOH      1151            0.0000000000
     26426      1843  MEOH      HO2            -4.1566670829      -20.7706259199       17.2700747305  MEOH      1151            0.0000000000
     26427      1843  MEOH      H1A            -4.8624917596      -19.5346866424       15.4051301375  MEOH      1151            0.0000000000
     26428      1843  MEOH      H1B            -3.2328834084      -18.7224109747       15.4875416342  MEOH      1151            0.0000000000
     26429      1843  MEOH      H1C            -4.4124882503      -18.4975001579       16.8129947596  MEOH      1151            0.0000000000
     26430      1843  MEOH      LP1A           -3.5538527500      -20.3801016495       17.0523642528  MEOH      1151            0.0000000000
     26431      1843  MEOH      LP1B           -3.2942068917      -20.5729224193       16.4796922011  MEOH      1151            0.0000000000
     26432      1844  MEOH      C1              0.3275805531       17.4840300170       31.7908653305  MEOH      1152            0.0000000000
     26433      1844  MEOH      DC1             0.3193466396       17.4962179738       31.8021824585  MEOH      1152            0.0000000000
     26434      1844  MEOH      O1             -0.3170523822       16.3204668462       31.2752580719  MEOH      1152            0.0000000000
     26435      1844  MEOH      DO1            -0.3323211844       16.3346285197       31.2867246560  MEOH      1152            0.0000000000
     26436      1844  MEOH      HO1            -0.0463430449       15.5580148674       31.8103126816  MEOH      1152            0.0000000000
     26437      1844  MEOH      HO2            -1.2459982158       16.5561132653       31.1254902401  MEOH      1152            0.0000000000
     26438      1844  MEOH      H1A             0.2955214030       18.2961917149       31.0334443189  MEOH      1152            0.0000000000
     26439      1844  MEOH      H1B             1.3887628440       17.2631165037       32.0346077470  MEOH      1152            0.0000000000
     26440      1844  MEOH      H1C            -0.2127533423       17.8166514494       32.7028539621  MEOH      1152            0.0000000000
     26441      1844  MEOH      LP1A           -0.6280569619       16.2774536632       31.4299384439  MEOH      1152            0.0000000000
     26442      1844  MEOH      LP1B           -0.1193304143       16.1746089537       31.0259961642  MEOH      1152            0.0000000000
     26443      1845  MEOH      C1            -22.1575773796      -22.8745898428       -2.9927739820  MEOH      1153            0.0000000000
     26444      1845  MEOH      DC1           -22.1526662647      -22.8759313466       -2.9791641723  MEOH      1153            0.0000000000
     26445      1845  MEOH      O1            -21.4282059801      -23.8423301625       -3.7449901056  MEOH      1153            0.0000000000
     26446      1845  MEOH      DO1           -21.4218289946      -23.8434864193       -3.7388895725  MEOH      1153            0.0000000000
     26447      1845  MEOH      HO1           -21.7253715138      -23.7955596297       -4.6671642555  MEOH      1153            0.0000000000
     26448      1845  MEOH      HO2           -20.4951380186      -23.7044567730       -3.5185500280  MEOH      1153            0.0000000000
     26449      1845  MEOH      H1A           -21.8846306117      -22.9485685305       -1.9183679988  MEOH      1153            0.0000000000
     26450      1845  MEOH      H1B           -23.2494502783      -23.0457848308       -3.1060296622  MEOH      1153            0.0000000000
     26451      1845  MEOH      H1C           -21.8970377708      -21.8589644772       -3.3601229050  MEOH      1153            0.0000000000
     26452      1845  MEOH      LP1A          -21.1321115266      -23.7009287664       -3.8667838647  MEOH      1153            0.0000000000
     26453      1845  MEOH      LP1B          -21.5962409103      -24.1493138399       -3.7399617810  MEOH      1153            0.0000000000
     26454      1846  MEOH      C1            -15.2355895087        0.4962509608      -15.0899247137  MEOH      1154            0.0000000000
     26455      1846  MEOH      DC1           -15.2503062016        0.4963298605      -15.0820878720  MEOH      1154            0.0000000000
     26456      1846  MEOH      O1            -15.2488310154        1.7519088978      -15.7685027628  MEOH      1154            0.0000000000
     26457      1846  MEOH      DO1           -15.2639699727        1.7590737334      -15.7580481691  MEOH      1154            0.0000000000
     26458      1846  MEOH      HO1           -16.0072073732        2.2630094119      -15.4451738818  MEOH      1154            0.0000000000
     26459      1846  MEOH      HO2           -14.3456448400        2.0975375103      -15.6930335986  MEOH      1154            0.0000000000
     26460      1846  MEOH      H1A           -14.4465510637       -0.1510704021      -15.5289171807  MEOH      1154            0.0000000000
     26461      1846  MEOH      H1B           -16.2183640750       -0.0100720227      -15.1999801012  MEOH      1154            0.0000000000
     26462      1846  MEOH      H1C           -14.9984134111        0.6475572658      -14.0151340818  MEOH      1154            0.0000000000
     26463      1846  MEOH      LP1A          -15.0570181089        1.9854276341      -15.5919332052  MEOH      1154            0.0000000000
     26464      1846  MEOH      LP1B          -15.4334520192        1.7259589631      -16.0647149940  MEOH      1154            0.0000000000
     26465      1847  MEOH      C1            -18.9913392987        2.9417838920       26.6665435362  MEOH      1155            0.0000000000
     26466      1847  MEOH      DC1           -18.9999750138        2.9479348547       26.6599475131  MEOH      1155            0.0000000000
     26467      1847  MEOH      O1            -20.3987218174        2.7651581688       26.5219886292  MEOH      1155            0.0000000000
     26468      1847  MEOH      DO1           -20.4098041066        2.7648786005       26.5370061442  MEOH      1155            0.0000000000
     26469      1847  MEOH      HO1           -20.5823863344        1.8316216053       26.7108717408  MEOH      1155            0.0000000000
     26470      1847  MEOH      HO2           -20.8245470636        3.4922842742       27.0024680646  MEOH      1155            0.0000000000
     26471      1847  MEOH      H1A           -18.6918564183        3.9190403854       26.2311118531  MEOH      1155            0.0000000000
     26472      1847  MEOH      H1B           -18.4433175981        2.1306095954       26.1411965287  MEOH      1155            0.0000000000
     26473      1847  MEOH      H1C           -18.7133169390        2.9166662936       27.7419009996  MEOH      1155            0.0000000000
     26474      1847  MEOH      LP1A          -20.5592135534        2.8284419120       26.8265170688  MEOH      1155            0.0000000000
     26475      1847  MEOH      LP1B          -20.4756751320        2.6833218636       26.1905055881  MEOH      1155            0.0000000000
     26476      1848  MEOH      C1             11.1148666710      -12.8354647827        3.6540792188  MEOH      1156            0.0000000000
     26477      1848  MEOH      DC1            11.1317087052      -12.8297244537        3.6547172214  MEOH      1156            0.0000000000
     26478      1848  MEOH      O1             11.6884790677      -11.6086128397        4.1040706059  MEOH      1156            0.0000000000
     26479      1848  MEOH      DO1            11.7046608734      -11.6034307743        4.1006643016  MEOH      1156            0.0000000000
     26480      1848  MEOH      HO1            12.1687730813      -11.2347377079        3.3487991001  MEOH      1156            0.0000000000
     26481      1848  MEOH      HO2            10.9510553440      -11.1120094231        4.4920026853  MEOH      1156            0.0000000000
     26482      1848  MEOH      H1A            10.5465816549      -13.3100699298        4.4824046955  MEOH      1156            0.0000000000
     26483      1848  MEOH      H1B            11.9171784863      -13.5367843817        3.3398061349  MEOH      1156            0.0000000000
     26484      1848  MEOH      H1C            10.4216493326      -12.6502650549        2.8058623928  MEOH      1156            0.0000000000
     26485      1848  MEOH      LP1A           11.4629936198      -11.3456243291        4.0541370894  MEOH      1156            0.0000000000
     26486      1848  MEOH      LP1B           12.0056347298      -11.6674685231        4.2398951050  MEOH      1156            0.0000000000
     26487      1849  MEOH      C1            -25.7569589372       12.2030560340       -3.3353536179  MEOH      1157            0.0000000000
     26488      1849  MEOH      DC1           -25.7549382598       12.2018591581       -3.3322045704  MEOH      1157            0.0000000000
     26489      1849  MEOH      O1            -26.8696740729       12.8679511657       -3.9324926089  MEOH      1157            0.0000000000
     26490      1849  MEOH      DO1           -26.8676612796       12.8607461713       -3.9328580523  MEOH      1157            0.0000000000
     26491      1849  MEOH      HO1           -27.5468441534       12.9874903825       -3.2483500377  MEOH      1157            0.0000000000
     26492      1849  MEOH      HO2           -26.4998683101       13.6440403405       -4.3817467598  MEOH      1157            0.0000000000
     26493      1849  MEOH      H1A           -24.9825545372       12.0163943848       -4.1098058462  MEOH      1157            0.0000000000
     26494      1849  MEOH      H1B           -26.0676476075       11.2287553227       -2.9011512735  MEOH      1157            0.0000000000
     26495      1849  MEOH      H1C           -25.3158573692       12.8449642458       -2.5430757278  MEOH      1157            0.0000000000
     26496      1849  MEOH      LP1A          -26.8289015186       13.2147348022       -3.9084362532  MEOH      1157            0.0000000000
     26497      1849  MEOH      LP1B          -27.0915737230       12.6329436306       -4.0667759054  MEOH      1157            0.0000000000
     26498      1850  MEOH      C1             29.1853805496        4.9893063757       15.4848608054  MEOH      1158            0.0000000000
     26499      1850  MEOH      DC1            29.1890550106        4.9952163294       15.4768394699  MEOH      1158            0.0000000000
     26500      1850  MEOH      O1             29.3110158444        4.1894551428       14.3061546191  MEOH      1158            0.0000000000
     26501      1850  MEOH      DO1            29.3151537659        4.1901393562       14.3026635599  MEOH      1158            0.0000000000
     26502      1850  MEOH      HO1            29.4464885228        3.2761369759       14.6034710831  MEOH      1158            0.0000000000
     26503      1850  MEOH      HO2            28.5386185016        4.4037511077       13.7599132950  MEOH      1158            0.0000000000
     26504      1850  MEOH      H1A            29.0375490671        6.0528157480       15.1995282449  MEOH      1158            0.0000000000
     26505      1850  MEOH      H1B            30.1022444010        4.9003434949       16.1059624749  MEOH      1158            0.0000000000
     26506      1850  MEOH      H1C            28.3119791605        4.6528674974       16.0834423748  MEOH      1158            0.0000000000
     26507      1850  MEOH      LP1A           28.9956423758        4.0784277870       14.2026534039  MEOH      1158            0.0000000000
     26508      1850  MEOH      LP1B           29.6460515060        4.1759320100       14.2058140473  MEOH      1158            0.0000000000
     26509      1851  MEOH      C1            -27.9260265129       14.3792221151      -15.1243887724  MEOH      1159            0.0000000000
     26510      1851  MEOH      DC1           -27.9148254872       14.3885900216      -15.1104066123  MEOH      1159            0.0000000000
     26511      1851  MEOH      O1            -26.7818157697       14.7507321640      -15.9016017936  MEOH      1159            0.0000000000
     26512      1851  MEOH      DO1           -26.7763237423       14.7647075726      -15.8926404979  MEOH      1159            0.0000000000
     26513      1851  MEOH      HO1           -25.9974559836       14.6845909914      -15.3347640114  MEOH      1159            0.0000000000
     26514      1851  MEOH      HO2           -26.8265104679       14.1923143992      -16.6934805624  MEOH      1159            0.0000000000
     26515      1851  MEOH      H1A           -28.8403429312       14.4981412138      -15.7442312826  MEOH      1159            0.0000000000
     26516      1851  MEOH      H1B           -28.0491024949       15.0373526951      -14.2378012453  MEOH      1159            0.0000000000
     26517      1851  MEOH      H1C           -27.8650105094       13.3165362430      -14.8061172146  MEOH      1159            0.0000000000
     26518      1851  MEOH      LP1A          -26.6499173112       14.4693036800      -16.0625390642  MEOH      1159            0.0000000000
     26519      1851  MEOH      LP1B          -26.7292112877       15.0960615026      -15.8796833918  MEOH      1159            0.0000000000
     26520      1852  MEOH      C1              7.2048987475       34.1958567389       24.6531090881  MEOH      1160            0.0000000000
     26521      1852  MEOH      DC1             7.1921494185       34.1961766965       24.6549106213  MEOH      1160            0.0000000000
     26522      1852  MEOH      O1              8.6090335351       34.0585102233       24.8693258353  MEOH      1160            0.0000000000
     26523      1852  MEOH      DO1             8.5965802612       34.0543979886       24.8748214697  MEOH      1160            0.0000000000
     26524      1852  MEOH      HO1             8.8215841534       34.3822536488       25.7586584104  MEOH      1160            0.0000000000
     26525      1852  MEOH      HO2             8.8450220773       33.1632936275       24.5798493154  MEOH      1160            0.0000000000
     26526      1852  MEOH      H1A             6.9865015569       34.0426651972       23.5746119767  MEOH      1160            0.0000000000
     26527      1852  MEOH      H1B             6.8764072395       35.2154547658       24.9477855084  MEOH      1160            0.0000000000
     26528      1852  MEOH      H1C             6.6536579790       33.4338756274       25.2445813207  MEOH      1160            0.0000000000
     26529      1852  MEOH      LP1A            8.6791796814       33.7429865376       25.0035805258  MEOH      1160            0.0000000000
     26530      1852  MEOH      LP1B            8.7756026770       34.3465719551       24.7608124276  MEOH      1160            0.0000000000
     26531      1853  MEOH      C1            -28.0129257078      -32.9136379041      -15.2105593365  MEOH      1161            0.0000000000
     26532      1853  MEOH      DC1           -28.0087816179      -32.9069631753      -15.2070600926  MEOH      1161            0.0000000000
     26533      1853  MEOH      O1            -28.0669017078      -34.2445303247      -15.7260059036  MEOH      1161            0.0000000000
     26534      1853  MEOH      DO1           -28.0608700759      -34.2356627235      -15.7213162553  MEOH      1161            0.0000000000
     26535      1853  MEOH      HO1           -28.5486537338      -34.8063758580      -15.0989934778  MEOH      1161            0.0000000000
     26536      1853  MEOH      HO2           -28.3766153781      -34.1605008270      -16.6413836872  MEOH      1161            0.0000000000
     26537      1853  MEOH      H1A           -27.4001489430      -32.2895973599      -15.8956863598  MEOH      1161            0.0000000000
     26538      1853  MEOH      H1B           -27.5452205223      -32.9044426876      -14.2028449385  MEOH      1161            0.0000000000
     26539      1853  MEOH      H1C           -29.0347536475      -32.4804704128      -15.1600164231  MEOH      1161            0.0000000000
     26540      1853  MEOH      LP1A          -28.3506424118      -34.2835767076      -15.9271690039  MEOH      1161            0.0000000000
     26541      1853  MEOH      LP1B          -27.7863288351      -34.4252269979      -15.6205185804  MEOH      1161            0.0000000000
     26542      1854  MEOH      C1            -12.5101728537      -35.6056509561       -2.5728614435  MEOH      1162            0.0000000000
     26543      1854  MEOH      DC1           -12.5118222789      -35.6006124561       -2.5710119868  MEOH      1162            0.0000000000
     26544      1854  MEOH      O1            -11.7505135118      -36.4213274553       -3.4653198192  MEOH      1162            0.0000000000
     26545      1854  MEOH      DO1           -11.7560439763      -36.4090595605       -3.4674184398  MEOH      1162            0.0000000000
     26546      1854  MEOH      HO1           -10.8419546239      -36.4790524430       -3.1305235033  MEOH      1162            0.0000000000
     26547      1854  MEOH      HO2           -12.2671051352      -37.2319536272       -3.5953902033  MEOH      1162            0.0000000000
     26548      1854  MEOH      H1A           -13.5403048782      -35.4823565804       -2.9702875514  MEOH      1162            0.0000000000
     26549      1854  MEOH      H1B           -12.0389015248      -34.6041969427       -2.4763513701  MEOH      1162            0.0000000000
     26550      1854  MEOH      H1C           -12.5676442449      -36.0892765518       -1.5743003175  MEOH      1162            0.0000000000
     26551      1854  MEOH      LP1A          -11.7727229972      -36.7570531358       -3.3689092065  MEOH      1162            0.0000000000
     26552      1854  MEOH      LP1B          -11.6102302326      -36.2238338348       -3.7179398332  MEOH      1162            0.0000000000
     26553      1855  MEOH      C1            -25.5098563801       17.4550469282       16.4594895405  MEOH      1163            0.0000000000
     26554      1855  MEOH      DC1           -25.5074381387       17.4512683396       16.4599522680  MEOH      1163            0.0000000000
     26555      1855  MEOH      O1            -24.6192316963       16.4006114526       16.8379962914  MEOH      1163            0.0000000000
     26556      1855  MEOH      DO1           -24.6158333686       16.4007265411       16.8338088052  MEOH      1163            0.0000000000
     26557      1855  MEOH      HO1           -24.9722630643       15.9748858233       17.6348818175  MEOH      1163            0.0000000000
     26558      1855  MEOH      HO2           -24.4539569425       15.8821863251       16.0349896639  MEOH      1163            0.0000000000
     26559      1855  MEOH      H1A           -25.0833625813       18.0150425842       15.5999379681  MEOH      1163            0.0000000000
     26560      1855  MEOH      H1B           -25.6391278957       18.1630451899       17.3058631793  MEOH      1163            0.0000000000
     26561      1855  MEOH      H1C           -26.5009972235       17.0445750538       16.1705714366  MEOH      1163            0.0000000000
     26562      1855  MEOH      LP1A          -24.7108011210       16.1032509658       16.6777097313  MEOH      1163            0.0000000000
     26563      1855  MEOH      LP1B          -24.3719112504       16.5240914259       17.0526711462  MEOH      1163            0.0000000000
     26564      1856  MEOH      C1            -13.4147998638       35.7498922963       15.4285290305  MEOH      1164            0.0000000000
     26565      1856  MEOH      DC1           -13.4334717802       35.7433371810       15.4176539872  MEOH      1164            0.0000000000
     26566      1856  MEOH      O1            -12.1647727027       35.1440966132       15.7534578545  MEOH      1164            0.0000000000
     26567      1856  MEOH      DO1           -12.1839555839       35.1440494832       15.7485315103  MEOH      1164            0.0000000000
     26568      1856  MEOH      HO1           -11.5728431008       35.8219471345       16.1154495909  MEOH      1164            0.0000000000
     26569      1856  MEOH      HO2           -12.3799788871       34.3564592005       16.2771119442  MEOH      1164            0.0000000000
     26570      1856  MEOH      H1A           -14.0486809906       35.0024655947       14.9052040429  MEOH      1164            0.0000000000
     26571      1856  MEOH      H1B           -13.2687138202       36.6218776531       14.7557575931  MEOH      1164            0.0000000000
     26572      1856  MEOH      H1C           -13.9422823587       36.0834798584       16.3476604447  MEOH      1164            0.0000000000
     26573      1856  MEOH      LP1A          -12.1722335420       35.0228669282       16.0817073013  MEOH      1164            0.0000000000
     26574      1856  MEOH      LP1B          -11.9514972232       35.1535193064       15.4761046812  MEOH      1164            0.0000000000
     26575      1857  MEOH      C1             11.1630628633      -10.3728341040      -18.8146005748  MEOH      1165            0.0000000000
     26576      1857  MEOH      DC1            11.1827126495      -10.3632450355      -18.8072782599  MEOH      1165            0.0000000000
     26577      1857  MEOH      O1             10.8652043247       -9.4929914561      -17.7324036618  MEOH      1165            0.0000000000
     26578      1857  MEOH      DO1            10.8834035204       -9.4811109398      -17.7250772254  MEOH      1165            0.0000000000
     26579      1857  MEOH      HO1            10.0647185294       -9.0119122551      -17.9944824552  MEOH      1165            0.0000000000
     26580      1857  MEOH      HO2            10.8376297839      -10.0599554873      -16.9458342544  MEOH      1165            0.0000000000
     26581      1857  MEOH      H1A            12.0043824586      -11.0470662842      -18.5464340097  MEOH      1165            0.0000000000
     26582      1857  MEOH      H1B            11.4340179018       -9.7944263466      -19.7236378860  MEOH      1165            0.0000000000
     26583      1857  MEOH      H1C            10.2678981221      -10.9934379951      -19.0333513427  MEOH      1165            0.0000000000
     26584      1857  MEOH      LP1A           10.6591520538       -9.6544565704      -17.5000860377  MEOH      1165            0.0000000000
     26585      1857  MEOH      LP1B           11.0304223506       -9.1877332185      -17.7773526591  MEOH      1165            0.0000000000
     26586      1858  MEOH      C1            -36.1083160609      -22.7349102982        6.0739040476  MEOH      1166            0.0000000000
     26587      1858  MEOH      DC1           -36.1056023754      -22.7225345793        6.0760387743  MEOH      1166            0.0000000000
     26588      1858  MEOH      O1            -35.0398979504      -21.9553806890        6.6169974528  MEOH      1166            0.0000000000
     26589      1858  MEOH      DO1           -35.0417987575      -21.9448467929        6.6160215133  MEOH      1166            0.0000000000
     26590      1858  MEOH      HO1           -34.2924233554      -22.0198343625        6.0021580803  MEOH      1166            0.0000000000
     26591      1858  MEOH      HO2           -35.4202248566      -21.0975246196        6.8626280883  MEOH      1166            0.0000000000
     26592      1858  MEOH      H1A           -36.9174385796      -22.8381028971        6.8282203190  MEOH      1166            0.0000000000
     26593      1858  MEOH      H1B           -35.7435926050      -23.7490194042        5.8039401170  MEOH      1166            0.0000000000
     26594      1858  MEOH      H1C           -36.5201717468      -22.2415236649        5.1676670340  MEOH      1166            0.0000000000
     26595      1858  MEOH      LP1A          -35.0641254459      -21.6246446135        6.5050748151  MEOH      1166            0.0000000000
     26596      1858  MEOH      LP1B          -34.8433432132      -22.1528220953        6.8288538342  MEOH      1166            0.0000000000
     26597      1859  MEOH      C1              6.2742829204       30.0177267518      -17.7791597207  MEOH      1167            0.0000000000
     26598      1859  MEOH      DC1             6.2877719164       30.0249298314      -17.8046268984  MEOH      1167            0.0000000000
     26599      1859  MEOH      O1              6.9540113511       30.8007081301      -16.7865480916  MEOH      1167            0.0000000000
     26600      1859  MEOH      DO1             6.9744878602       30.8117945543      -16.8075269092  MEOH      1167            0.0000000000
     26601      1859  MEOH      HO1             7.4143119665       30.2028153296      -16.1770010938  MEOH      1167            0.0000000000
     26602      1859  MEOH      HO2             7.3314351840       31.5919340411      -17.2017743058  MEOH      1167            0.0000000000
     26603      1859  MEOH      H1A             5.4253973428       30.6054092574      -18.1894566238  MEOH      1167            0.0000000000
     26604      1859  MEOH      H1B             5.8726531147       29.0881270217      -17.3221489514  MEOH      1167            0.0000000000
     26605      1859  MEOH      H1C             6.9555883913       29.7398928734      -18.6115972211  MEOH      1167            0.0000000000
     26606      1859  MEOH      LP1A            7.2759622313       30.8814378011      -16.8975902052  MEOH      1167            0.0000000000
     26607      1859  MEOH      LP1B            6.7415336439       30.8601885586      -16.5148583742  MEOH      1167            0.0000000000
     26608      1860  MEOH      C1            -35.4965032845       11.3003028568      -24.2357044264  MEOH      1168            0.0000000000
     26609      1860  MEOH      DC1           -35.4922891641       11.2947485369      -24.2226460979  MEOH      1168            0.0000000000
     26610      1860  MEOH      O1            -35.3827119119       11.6234251519      -22.8495409991  MEOH      1168            0.0000000000
     26611      1860  MEOH      DO1           -35.3851284459       11.6072986424      -22.8397357937  MEOH      1168            0.0000000000
     26612      1860  MEOH      HO1           -36.1416136770       12.1821496018      -22.6197691544  MEOH      1168            0.0000000000
     26613      1860  MEOH      HO2           -35.1818165281       10.7957926994      -22.3852506070  MEOH      1168            0.0000000000
     26614      1860  MEOH      H1A           -34.5405045179       10.8630544203      -24.5951500593  MEOH      1168            0.0000000000
     26615      1860  MEOH      H1B           -35.7184177316       12.2094157180      -24.8345272594  MEOH      1168            0.0000000000
     26616      1860  MEOH      H1C           -36.3139981875       10.5655175126      -24.3973014004  MEOH      1168            0.0000000000
     26617      1860  MEOH      LP1A          -35.5424904594       11.3793059965      -22.6562105729  MEOH      1168            0.0000000000
     26618      1860  MEOH      LP1B          -35.1941591676       11.9156067886      -22.8098200496  MEOH      1168            0.0000000000
     26619      1861  MEOH      C1            -13.8618138821        3.6973230515        1.6830659350  MEOH      1169            0.0000000000
     26620      1861  MEOH      DC1           -13.8682841983        3.7033673255        1.6740445067  MEOH      1169            0.0000000000
     26621      1861  MEOH      O1            -13.8960870019        3.1066753973        0.3769732715  MEOH      1169            0.0000000000
     26622      1861  MEOH      DO1           -13.9014252569        3.1088322626        0.3714102976  MEOH      1169            0.0000000000
     26623      1861  MEOH      HO1           -14.7766798113        3.2440980926       -0.0058730513  MEOH      1169            0.0000000000
     26624      1861  MEOH      HO2           -13.0973978934        3.4092058456       -0.0828865300  MEOH      1169            0.0000000000
     26625      1861  MEOH      H1A           -12.9263227521        3.3997043827        2.2032586624  MEOH      1169            0.0000000000
     26626      1861  MEOH      H1B           -14.7300653896        3.3569604074        2.2868983551  MEOH      1169            0.0000000000
     26627      1861  MEOH      H1C           -13.8936112902        4.8073791382        1.6501203783  MEOH      1169            0.0000000000
     26628      1861  MEOH      LP1A          -13.7921612552        3.3397407631        0.1374320967  MEOH      1169            0.0000000000
     26629      1861  MEOH      LP1B          -13.9948175489        2.7716560663        0.3996520497  MEOH      1169            0.0000000000
     26630      1862  MEOH      C1             -1.3246567456      -32.7346924933      -11.8878921819  MEOH      1170            0.0000000000
     26631      1862  MEOH      DC1            -1.3162468873      -32.7299715979      -11.8937032958  MEOH      1170            0.0000000000
     26632      1862  MEOH      O1             -1.7010642772      -31.7008960585      -12.8010457148  MEOH      1170            0.0000000000
     26633      1862  MEOH      DO1            -1.6897179291      -31.7003255599      -12.8142322886  MEOH      1170            0.0000000000
     26634      1862  MEOH      HO1            -1.5236698229      -30.8532505806      -12.3640922260  MEOH      1170            0.0000000000
     26635      1862  MEOH      HO2            -1.3656223217      -31.9458052398      -13.6776289613  MEOH      1170            0.0000000000
     26636      1862  MEOH      H1A            -1.8512078875      -33.6739354112      -12.1615482363  MEOH      1170            0.0000000000
     26637      1862  MEOH      H1B            -1.6160643949      -32.4581767613      -10.8520632224  MEOH      1170            0.0000000000
     26638      1862  MEOH      H1C            -0.2282411270      -32.9091273567      -11.9299191997  MEOH      1170            0.0000000000
     26639      1862  MEOH      LP1A           -1.4298750590      -31.6176907858      -13.0060659347  MEOH      1170            0.0000000000
     26640      1862  MEOH      LP1B           -2.0384168158      -31.6189241080      -12.7566175251  MEOH      1170            0.0000000000
     26641      1863  MEOH      C1             29.8346507666       32.4934219331      -16.5060523715  MEOH      1171            0.0000000000
     26642      1863  MEOH      DC1            29.8253327797       32.5084361411      -16.5036340287  MEOH      1171            0.0000000000
     26643      1863  MEOH      O1             29.8019268264       33.8337476956      -16.0153960342  MEOH      1171            0.0000000000
     26644      1863  MEOH      DO1            29.7873566540       33.8492492467      -16.0152023586  MEOH      1171            0.0000000000
     26645      1863  MEOH      HO1            30.1121054673       34.4052157730      -16.7351970117  MEOH      1171            0.0000000000
     26646      1863  MEOH      HO2            28.9453989921       33.9554137537      -15.5766963184  MEOH      1171            0.0000000000
     26647      1863  MEOH      H1A            29.6987895469       31.7816941219      -15.6638491583  MEOH      1171            0.0000000000
     26648      1863  MEOH      H1B            30.8151608998       32.2882974383      -16.9865155026  MEOH      1171            0.0000000000
     26649      1863  MEOH      H1C            29.0245323657       32.3382381508      -17.2503286452  MEOH      1171            0.0000000000
     26650      1863  MEOH      LP1A           29.4882046995       33.9761574873      -16.0770229630  MEOH      1171            0.0000000000
     26651      1863  MEOH      LP1B           30.1062447056       33.9123084285      -15.8613868149  MEOH      1171            0.0000000000
     26652      1864  MEOH      C1             17.8454259724       18.7071321087       13.2691094690  MEOH      1172            0.0000000000
     26653      1864  MEOH      DC1            17.8398955734       18.6999785257       13.2733178005  MEOH      1172            0.0000000000
     26654      1864  MEOH      O1             17.0859447305       18.4334320764       14.4468535187  MEOH      1172            0.0000000000
     26655      1864  MEOH      DO1            17.0955129152       18.4252204228       14.4550685866  MEOH      1172            0.0000000000
     26656      1864  MEOH      HO1            16.2248362293       18.8712747068       14.3591837926  MEOH      1172            0.0000000000
     26657      1864  MEOH      HO2            17.1325996906       17.4735420501       14.5785138852  MEOH      1172            0.0000000000
     26658      1864  MEOH      H1A            18.8644606414       18.2768013898       13.3725735591  MEOH      1172            0.0000000000
     26659      1864  MEOH      H1B            17.9401837532       19.8017595473       13.1043892993  MEOH      1172            0.0000000000
     26660      1864  MEOH      H1C            17.3558839006       18.2413968187       12.3872023313  MEOH      1172            0.0000000000
     26661      1864  MEOH      LP1A           16.9038034514       18.1374023713       14.4057321360  MEOH      1172            0.0000000000
     26662      1864  MEOH      LP1B           17.1494663153       18.6773969807       14.6896417674  MEOH      1172            0.0000000000
     26663      1865  MEOH      C1              5.6812529821       -2.8843989116       -5.3864719050  MEOH      1173            0.0000000000
     26664      1865  MEOH      DC1             5.6908856862       -2.8967526247       -5.3663543538  MEOH      1173            0.0000000000
     26665      1865  MEOH      O1              5.4239152480       -3.0787553305       -3.9922644344  MEOH      1173            0.0000000000
     26666      1865  MEOH      DO1             5.4393250360       -3.0881234620       -3.9712195169  MEOH      1173            0.0000000000
     26667      1865  MEOH      HO1             4.4913000829       -2.8385023719       -3.8764738058  MEOH      1173            0.0000000000
     26668      1865  MEOH      HO2             5.7297652231       -3.9771513225       -3.7916642467  MEOH      1173            0.0000000000
     26669      1865  MEOH      H1A             6.7477942099       -3.0847353567       -5.6245393704  MEOH      1173            0.0000000000
     26670      1865  MEOH      H1B             5.4546261108       -1.8369285208       -5.6793320147  MEOH      1173            0.0000000000
     26671      1865  MEOH      H1C             5.0435928562       -3.5684831373       -5.9862546460  MEOH      1173            0.0000000000
     26672      1865  MEOH      LP1A            5.3202301449       -3.4080043443       -3.9344329007  MEOH      1173            0.0000000000
     26673      1865  MEOH      LP1B            5.4954177609       -2.7853759999       -3.8153012772  MEOH      1173            0.0000000000
     26674      1866  MEOH      C1             35.7258795411       18.3721689199      -22.1321375356  MEOH      1174            0.0000000000
     26675      1866  MEOH      DC1            35.7288498753       18.3677118578      -22.1239779211  MEOH      1174            0.0000000000
     26676      1866  MEOH      O1             37.1330801679       18.1303956257      -22.2025492180  MEOH      1174            0.0000000000
     26677      1866  MEOH      DO1            37.1340764047       18.1351525131      -22.1955630509  MEOH      1174            0.0000000000
     26678      1866  MEOH      HO1            37.2714153476       17.3090542574      -22.6997028515  MEOH      1174            0.0000000000
     26679      1866  MEOH      HO2            37.5231124184       18.9611337942      -22.5166335045  MEOH      1174            0.0000000000
     26680      1866  MEOH      H1A            35.5296158532       19.2813980157      -21.5245982220  MEOH      1174            0.0000000000
     26681      1866  MEOH      H1B            35.2170101113       17.5084653798      -21.6531917155  MEOH      1174            0.0000000000
     26682      1866  MEOH      H1C            35.3076827505       18.5297680930      -23.1492879399  MEOH      1174            0.0000000000
     26683      1866  MEOH      LP1A           37.2674394454       18.2869493086      -22.4852832430  MEOH      1174            0.0000000000
     26684      1866  MEOH      LP1B           37.2363392797       17.9429407746      -21.9256047568  MEOH      1174            0.0000000000
     26685      1867  MEOH      C1            -13.3404293879       19.6765431669       13.8804326978  MEOH      1175            0.0000000000
     26686      1867  MEOH      DC1           -13.3404348098       19.6855423579       13.8827093797  MEOH      1175            0.0000000000
     26687      1867  MEOH      O1            -11.9802354767       19.4755548281       14.2752735618  MEOH      1175            0.0000000000
     26688      1867  MEOH      DO1           -11.9841195643       19.4785503240       14.2804799685  MEOH      1175            0.0000000000
     26689      1867  MEOH      HO1           -11.5044409767       19.1080378653       13.5140568543  MEOH      1175            0.0000000000
     26690      1867  MEOH      HO2           -11.6900144745       20.3137237344       14.6678861641  MEOH      1175            0.0000000000
     26691      1867  MEOH      H1A           -13.9371343439       20.0078561098       14.7570716941  MEOH      1175            0.0000000000
     26692      1867  MEOH      H1B           -13.7655201539       18.7266856136       13.4913447012  MEOH      1175            0.0000000000
     26693      1867  MEOH      H1C           -13.4020742416       20.4517334946       13.0869587730  MEOH      1175            0.0000000000
     26694      1867  MEOH      LP1A          -11.7935016019       19.7649579128       14.2130135057  MEOH      1175            0.0000000000
     26695      1867  MEOH      LP1B          -11.9417651241       19.1565655903       14.4140752121  MEOH      1175            0.0000000000
     26696      1868  MEOH      C1              7.2216233895        3.6454353276      -30.6435448244  MEOH      1176            0.0000000000
     26697      1868  MEOH      DC1             7.2239889185        3.6521437866      -30.6213550085  MEOH      1176            0.0000000000
     26698      1868  MEOH      O1              7.6822875429        4.2285171282      -29.4267856587  MEOH      1176            0.0000000000
     26699      1868  MEOH      DO1             7.6756707454        4.2317656548      -29.4086561633  MEOH      1176            0.0000000000
     26700      1868  MEOH      HO1             7.5492497653        3.5713400847      -28.7258439469  MEOH      1176            0.0000000000
     26701      1868  MEOH      HO2             8.5796213024        4.5455825184      -29.6143000954  MEOH      1176            0.0000000000
     26702      1868  MEOH      H1A             7.4862734778        4.2929506225      -31.5066817056  MEOH      1176            0.0000000000
     26703      1868  MEOH      H1B             6.1174143311        3.5259217753      -30.6159791406  MEOH      1176            0.0000000000
     26704      1868  MEOH      H1C             7.7083646310        2.6585129342      -30.7964766829  MEOH      1176            0.0000000000
     26705      1868  MEOH      LP1A            8.0230956008        4.1616183283      -29.3834911070  MEOH      1176            0.0000000000
     26706      1868  MEOH      LP1B            7.4216306533        4.4029214051      -29.2714114841  MEOH      1176            0.0000000000
     26707      1869  MEOH      C1            -25.8504548375       34.0406266190       26.7203201345  MEOH      1177            0.0000000000
     26708      1869  MEOH      DC1           -25.8555753748       34.0447097619       26.7319135760  MEOH      1177            0.0000000000
     26709      1869  MEOH      O1            -25.4013714784       34.6517247298       27.9273723321  MEOH      1177            0.0000000000
     26710      1869  MEOH      DO1           -25.4050813147       34.6384708472       27.9476336472  MEOH      1177            0.0000000000
     26711      1869  MEOH      HO1           -24.5084816401       34.9780706359       27.7346391327  MEOH      1177            0.0000000000
     26712      1869  MEOH      HO2           -26.0937596175       35.2904160867       28.1588286262  MEOH      1177            0.0000000000
     26713      1869  MEOH      H1A           -26.8805674725       33.6453099061       26.8503726462  MEOH      1177            0.0000000000
     26714      1869  MEOH      H1B           -25.1806189603       33.1915007365       26.4661034257  MEOH      1177            0.0000000000
     26715      1869  MEOH      H1C           -25.8416183657       34.7794725704       25.8906517807  MEOH      1177            0.0000000000
     26716      1869  MEOH      LP1A          -25.4948792769       34.9889587891       27.9328019591  MEOH      1177            0.0000000000
     26717      1869  MEOH      LP1B          -25.2424048054       34.4144753587       28.1297144503  MEOH      1177            0.0000000000
     26718      1870  MEOH      C1            -10.3229825328       15.0827861893        8.7421892350  MEOH      1178            0.0000000000
     26719      1870  MEOH      DC1           -10.3256241152       15.0944587663        8.7425352537  MEOH      1178            0.0000000000
     26720      1870  MEOH      O1            -10.1852274739       15.0847952577       10.1633743801  MEOH      1178            0.0000000000
     26721      1870  MEOH      DO1           -10.1906910137       15.0983113260       10.1655750970  MEOH      1178            0.0000000000
     26722      1870  MEOH      HO1            -9.6740567222       14.2917744051       10.3885906979  MEOH      1178            0.0000000000
     26723      1870  MEOH      HO2            -9.8767047205       15.9716262214       10.4067764207  MEOH      1178            0.0000000000
     26724      1870  MEOH      H1A           -11.0000425203       15.9085772563        8.4356278431  MEOH      1178            0.0000000000
     26725      1870  MEOH      H1B           -10.7569106766       14.1140518942        8.4141934540  MEOH      1178            0.0000000000
     26726      1870  MEOH      H1C            -9.3327526300       15.2199329195        8.2574661032  MEOH      1178            0.0000000000
     26727      1870  MEOH      LP1A           -9.8977497913       15.2618953969       10.2555270943  MEOH      1178            0.0000000000
     26728      1870  MEOH      LP1B          -10.4555863488       14.9178155064       10.3100844390  MEOH      1178            0.0000000000
     26729      1871  MEOH      C1             -6.5479946099       23.1171594317       24.2020250013  MEOH      1179            0.0000000000
     26730      1871  MEOH      DC1            -6.5510585931       23.1157086205       24.2117625539  MEOH      1179            0.0000000000
     26731      1871  MEOH      O1             -7.9024519427       22.6581551708       24.2232580075  MEOH      1179            0.0000000000
     26732      1871  MEOH      DO1            -7.9034408869       22.6615167465       24.2213178650  MEOH      1179            0.0000000000
     26733      1871  MEOH      HO1            -8.2068887560       22.6214950747       25.1435157236  MEOH      1179            0.0000000000
     26734      1871  MEOH      HO2            -8.3780397437       23.1784918910       23.5569503141  MEOH      1179            0.0000000000
     26735      1871  MEOH      H1A            -6.1415309876       23.0316067288       23.1715935094  MEOH      1179            0.0000000000
     26736      1871  MEOH      H1B            -5.9170255348       22.4976223095       24.8746116354  MEOH      1179            0.0000000000
     26737      1871  MEOH      H1C            -6.5012228687       24.1828738467       24.5124862579  MEOH      1179            0.0000000000
     26738      1871  MEOH      LP1A           -8.1213795738       22.9299413413       24.1967444292  MEOH      1179            0.0000000000
     26739      1871  MEOH      LP1B           -7.9101552291       22.3087355126       24.2418741796  MEOH      1179            0.0000000000
     26740      1872  MEOH      C1            -12.3939270688        6.1920643925       21.0753226837  MEOH      1180            0.0000000000
     26741      1872  MEOH      DC1           -12.3978904723        6.1992930459       21.0761122171  MEOH      1180            0.0000000000
     26742      1872  MEOH      O1            -13.1643196098        6.3406996187       19.8869525043  MEOH      1180            0.0000000000
     26743      1872  MEOH      DO1           -13.1660452739        6.3588287901       19.8896001025  MEOH      1180            0.0000000000
     26744      1872  MEOH      HO1           -12.5561956148        6.5717841303       19.1674490950  MEOH      1180            0.0000000000
     26745      1872  MEOH      HO2           -13.6768709260        5.5208522807       19.8092254772  MEOH      1180            0.0000000000
     26746      1872  MEOH      H1A           -13.0610786328        5.8740215037       21.9048276650  MEOH      1180            0.0000000000
     26747      1872  MEOH      H1B           -11.9214085647        7.1659450575       21.3255300263  MEOH      1180            0.0000000000
     26748      1872  MEOH      H1C           -11.6118615872        5.4145113491       20.9407647145  MEOH      1180            0.0000000000
     26749      1872  MEOH      LP1A          -13.1919428746        6.0327644897       19.7229009525  MEOH      1180            0.0000000000
     26750      1872  MEOH      LP1B          -13.2757627578        6.6711361128       19.8570836559  MEOH      1180            0.0000000000
     26751      1873  MEOH      C1             12.6609294829       27.1333564107       34.7527285419  MEOH      1181            0.0000000000
     26752      1873  MEOH      DC1            12.6446621085       27.1459120250       34.7601847198  MEOH      1181            0.0000000000
     26753      1873  MEOH      O1             12.3799437970       28.3579170979       35.4318061456  MEOH      1181            0.0000000000
     26754      1873  MEOH      DO1            12.3664718175       28.3588525132       35.4503691488  MEOH      1181            0.0000000000
     26755      1873  MEOH      HO1            12.6007105958       28.1969950485       36.3625403260  MEOH      1181            0.0000000000
     26756      1873  MEOH      HO2            12.8700480466       29.0409300377       34.9478731448  MEOH      1181            0.0000000000
     26757      1873  MEOH      H1A            12.4572638949       27.2480142315       33.6665909293  MEOH      1181            0.0000000000
     26758      1873  MEOH      H1B            12.0236716073       26.3185857039       35.1581568284  MEOH      1181            0.0000000000
     26759      1873  MEOH      H1C            13.7258424753       26.8453128342       34.8843044476  MEOH      1181            0.0000000000
     26760      1873  MEOH      LP1A           12.6625739475       28.5643336091       35.4282816678  MEOH      1181            0.0000000000
     26761      1873  MEOH      LP1B           12.0468655071       28.3615123985       35.5392581191  MEOH      1181            0.0000000000
     26762      1874  MEOH      C1            -23.4465192214       22.6164397536       15.6189926479  MEOH      1182            0.0000000000
     26763      1874  MEOH      DC1           -23.4358472251       22.6245871761       15.6132428220  MEOH      1182            0.0000000000
     26764      1874  MEOH      O1            -23.9932678093       23.8352565268       15.1142132175  MEOH      1182            0.0000000000
     26765      1874  MEOH      DO1           -23.9857811085       23.8372318902       15.1064392929  MEOH      1182            0.0000000000
     26766      1874  MEOH      HO1           -24.8596160498       23.9575048249       15.5330163691  MEOH      1182            0.0000000000
     26767      1874  MEOH      HO2           -23.2926960178       24.5001234540       15.2039413324  MEOH      1182            0.0000000000
     26768      1874  MEOH      H1A           -22.5491913066       22.3283495760       15.0306664940  MEOH      1182            0.0000000000
     26769      1874  MEOH      H1B           -24.2025425144       21.8068838897       15.5331492801  MEOH      1182            0.0000000000
     26770      1874  MEOH      H1C           -23.1561965765       22.7317971355       16.6851663848  MEOH      1182            0.0000000000
     26771      1874  MEOH      LP1A          -23.8921714850       24.1038400964       15.3145688996  MEOH      1182            0.0000000000
     26772      1874  MEOH      LP1B          -24.1766580576       23.7725440731       14.8227768351  MEOH      1182            0.0000000000
     26773      1875  MEOH      C1             28.2530707902        5.6304043615       30.0292342741  MEOH      1183            0.0000000000
     26774      1875  MEOH      DC1            28.2563320709        5.6396800975       30.0244645551  MEOH      1183            0.0000000000
     26775      1875  MEOH      O1             26.9818501516        5.9944613508       30.5735365525  MEOH      1183            0.0000000000
     26776      1875  MEOH      DO1            26.9875524136        6.0060598427       30.5713456631  MEOH      1183            0.0000000000
     26777      1875  MEOH      HO1            26.4734799977        6.4309596582       29.8721600373  MEOH      1183            0.0000000000
     26778      1875  MEOH      HO2            26.6267754881        5.1797738740       30.9622604885  MEOH      1183            0.0000000000
     26779      1875  MEOH      H1A            28.8653472930        5.1310165573       30.8102914465  MEOH      1183            0.0000000000
     26780      1875  MEOH      H1B            28.7966584613        6.5357253772       29.6839412062  MEOH      1183            0.0000000000
     26781      1875  MEOH      H1C            28.1160770254        4.9222726340       29.1841880239  MEOH      1183            0.0000000000
     26782      1875  MEOH      LP1A           26.7542364787        5.7318315018       30.5320928766  MEOH      1183            0.0000000000
     26783      1875  MEOH      LP1B           26.9996747280        6.3135559360       30.7162282840  MEOH      1183            0.0000000000
     26784      1876  MEOH      C1            -26.9967936980      -30.3254256935      -11.4151512039  MEOH      1184            0.0000000000
     26785      1876  MEOH      DC1           -27.0066858871      -30.3280180888      -11.3989954289  MEOH      1184            0.0000000000
     26786      1876  MEOH      O1            -25.6235630446      -29.9573529060      -11.2756796237  MEOH      1184            0.0000000000
     26787      1876  MEOH      DO1           -25.6287997100      -29.9573204084      -11.2718471071  MEOH      1184            0.0000000000
     26788      1876  MEOH      HO1           -25.2939553558      -30.3409244579      -10.4479528348  MEOH      1184            0.0000000000
     26789      1876  MEOH      HO2           -25.2081430195      -30.1968170907      -12.1188777659  MEOH      1184            0.0000000000
     26790      1876  MEOH      H1A           -27.4047342009      -29.8954561758      -12.3548489005  MEOH      1184            0.0000000000
     26791      1876  MEOH      H1B           -27.5827708078      -29.9307345454      -10.5577302312  MEOH      1184            0.0000000000
     26792      1876  MEOH      H1C           -27.0893446909      -31.4313534124      -11.4669121570  MEOH      1184            0.0000000000
     26793      1876  MEOH      LP1A          -25.4194103526      -30.1957155037      -11.4306149339  MEOH      1184            0.0000000000
     26794      1876  MEOH      LP1B          -25.5980959526      -29.6515736813      -11.1073035774  MEOH      1184            0.0000000000
     26795      1877  MEOH      C1             19.5677674514       16.3865087729      -32.8429888783  MEOH      1185            0.0000000000
     26796      1877  MEOH      DC1            19.5768734753       16.4075883887      -32.8391023337  MEOH      1185            0.0000000000
     26797      1877  MEOH      O1             20.3378159594       17.1638768911      -31.9165301267  MEOH      1185            0.0000000000
     26798      1877  MEOH      DO1            20.3480636748       17.1713978891      -31.9116687877  MEOH      1185            0.0000000000
     26799      1877  MEOH      HO1            19.7050171545       17.7081282893      -31.4223074157  MEOH      1185            0.0000000000
     26800      1877  MEOH      HO2            20.9053832578       16.5341447787      -31.4451440539  MEOH      1185            0.0000000000
     26801      1877  MEOH      H1A            20.2401401382       15.7593740681      -33.4666378445  MEOH      1185            0.0000000000
     26802      1877  MEOH      H1B            18.9581351728       17.0278883702      -33.5147787985  MEOH      1185            0.0000000000
     26803      1877  MEOH      H1C            18.8696954985       15.7213909578      -32.2910515243  MEOH      1185            0.0000000000
     26804      1877  MEOH      LP1A           20.3773310401       16.9879805246      -31.6165317489  MEOH      1185            0.0000000000
     26805      1877  MEOH      LP1B           20.4365165786       17.4647040980      -32.0657319341  MEOH      1185            0.0000000000
     26806      1878  MEOH      C1             26.2544973752       -1.1654516808       -9.8785587159  MEOH      1186            0.0000000000
     26807      1878  MEOH      DC1            26.2660021033       -1.2141343587       -9.8818023145  MEOH      1186            0.0000000000
     26808      1878  MEOH      O1             26.2269917475       -2.5853282732       -9.9794098279  MEOH      1186            0.0000000000
     26809      1878  MEOH      DO1            26.2208708232       -2.6155128684       -9.9841403881  MEOH      1186            0.0000000000
     26810      1878  MEOH      HO1            25.3495347746       -2.8239471678       -9.6417261242  MEOH      1186            0.0000000000
     26811      1878  MEOH      HO2            26.4728249405       -2.7821713605      -10.8968621924  MEOH      1186            0.0000000000
     26812      1878  MEOH      H1A            27.2638815723       -0.7711770463      -10.1235322968  MEOH      1186            0.0000000000
     26813      1878  MEOH      H1B            25.9801558199       -0.8244952531       -8.8573797763  MEOH      1186            0.0000000000
     26814      1878  MEOH      H1C            25.5379298167       -0.7277606734      -10.6060740193  MEOH      1186            0.0000000000
     26815      1878  MEOH      LP1A           26.1065457069       -2.6806889729      -10.2938920822  MEOH      1186            0.0000000000
     26816      1878  MEOH      LP1B           26.3534503524       -2.7286350985       -9.6862010711  MEOH      1186            0.0000000000
     26817      1879  MEOH      C1            -22.4735051088       -3.2825962725      -22.4444848602  MEOH      1187            0.0000000000
     26818      1879  MEOH      DC1           -22.4590973226       -3.2836124309      -22.4489464602  MEOH      1187            0.0000000000
     26819      1879  MEOH      O1            -21.9767747972       -4.5885345837      -22.7340909458  MEOH      1187            0.0000000000
     26820      1879  MEOH      DO1           -21.9565523984       -4.5830122854      -22.7367364939  MEOH      1187            0.0000000000
     26821      1879  MEOH      HO1           -22.7367171330       -5.1468536441      -22.9613957482  MEOH      1187            0.0000000000
     26822      1879  MEOH      HO2           -21.2240499655       -4.4801322772      -23.3362157409  MEOH      1187            0.0000000000
     26823      1879  MEOH      H1A           -21.6828156862       -2.6952532391      -21.9305204643  MEOH      1187            0.0000000000
     26824      1879  MEOH      H1B           -23.3640733260       -3.3460517668      -21.7832869691  MEOH      1187            0.0000000000
     26825      1879  MEOH      H1C           -22.7758553248       -2.7716963240      -23.3835730293  MEOH      1187            0.0000000000
     26826      1879  MEOH      LP1A          -21.8960754679       -4.6133109193      -23.0737580644  MEOH      1187            0.0000000000
     26827      1879  MEOH      LP1B          -21.9634330806       -4.7792676196      -22.4409307377  MEOH      1187            0.0000000000
     26828      1880  MEOH      C1             36.5308446728      -14.3659043501       28.3708792763  MEOH      1188            0.0000000000
     26829      1880  MEOH      DC1            36.5067370696      -14.3732236268       28.3779117582  MEOH      1188            0.0000000000
     26830      1880  MEOH      O1             36.9484882565      -14.8032544934       27.0780648664  MEOH      1188            0.0000000000
     26831      1880  MEOH      DO1            36.9143020346      -14.8061321812       27.0798298291  MEOH      1188            0.0000000000
     26832      1880  MEOH      HO1            37.4712795744      -15.6175869971       27.1447867612  MEOH      1188            0.0000000000
     26833      1880  MEOH      HO2            36.2393622067      -14.6377425591       26.4372481639  MEOH      1188            0.0000000000
     26834      1880  MEOH      H1A            36.4230901383      -13.2604729520       28.3438351258  MEOH      1188            0.0000000000
     26835      1880  MEOH      H1B            37.2913649793      -14.6224744874       29.1390600029  MEOH      1188            0.0000000000
     26836      1880  MEOH      H1C            35.5641143366      -14.8400803509       28.6445772435  MEOH      1188            0.0000000000
     26837      1880  MEOH      LP1A           36.7062041123      -15.0140824637       26.9389607313  MEOH      1188            0.0000000000
     26838      1880  MEOH      LP1B           37.2554835260      -14.6568157612       26.9955445523  MEOH      1188            0.0000000000
     26839      1881  MEOH      C1              8.9961292483       -1.5809349537       23.8663864228  MEOH      1189            0.0000000000
     26840      1881  MEOH      DC1             8.9914060842       -1.5745132763       23.8685200525  MEOH      1189            0.0000000000
     26841      1881  MEOH      O1              8.9894346816       -0.8972113896       22.6131733296  MEOH      1189            0.0000000000
     26842      1881  MEOH      DO1             8.9868738991       -0.9001011047       22.6097635864  MEOH      1189            0.0000000000
     26843      1881  MEOH      HO1             9.8720757842       -0.9965379453       22.2233285921  MEOH      1189            0.0000000000
     26844      1881  MEOH      HO2             8.1953432395       -1.1986058268       22.1446862160  MEOH      1189            0.0000000000
     26845      1881  MEOH      H1A             8.0648188354       -1.3362445836       24.4205601659  MEOH      1189            0.0000000000
     26846      1881  MEOH      H1B             9.8747098687       -1.2693853983       24.4708315976  MEOH      1189            0.0000000000
     26847      1881  MEOH      H1C             9.0384478703       -2.6784603513       23.6991496557  MEOH      1189            0.0000000000
     26848      1881  MEOH      LP1A            8.8860672444       -1.1143616141       22.3588881493  MEOH      1189            0.0000000000
     26849      1881  MEOH      LP1B            9.0807139122       -0.5624407626       22.6589633868  MEOH      1189            0.0000000000
     26850      1882  MEOH      C1             17.7625666111      -20.4519926949       26.2148975798  MEOH      1190            0.0000000000
     26851      1882  MEOH      DC1            17.7639855333      -20.4661912542       26.2170217132  MEOH      1190            0.0000000000
     26852      1882  MEOH      O1             16.9008327694      -20.5278601280       27.3451255918  MEOH      1190            0.0000000000
     26853      1882  MEOH      DO1            16.9084183753      -20.5463287277       27.3498671780  MEOH      1190            0.0000000000
     26854      1882  MEOH      HO1            17.0858299575      -19.7439667541       27.8856690394  MEOH      1190            0.0000000000
     26855      1882  MEOH      HO2            16.0120937352      -20.6195619302       26.9674568088  MEOH      1190            0.0000000000
     26856      1882  MEOH      H1A            17.5694611149      -21.2996287084       25.5231285027  MEOH      1190            0.0000000000
     26857      1882  MEOH      H1B            18.8224322697      -20.4929415006       26.5455469150  MEOH      1190            0.0000000000
     26858      1882  MEOH      H1C            17.5791864702      -19.5022633298       25.6683567693  MEOH      1190            0.0000000000
     26859      1882  MEOH      LP1A           16.5959064541      -20.3715151951       27.2738781060  MEOH      1190            0.0000000000
     26860      1882  MEOH      LP1B           17.0564634715      -20.7068237566       27.6025184903  MEOH      1190            0.0000000000
     26861      1883  MEOH      C1              7.6943293143       35.6658013116        3.2756395696  MEOH      1191            0.0000000000
     26862      1883  MEOH      DC1             7.7062533218       35.6669472191        3.2653871209  MEOH      1191            0.0000000000
     26863      1883  MEOH      O1              6.9277327568       34.5924565605        3.8237541124  MEOH      1191            0.0000000000
     26864      1883  MEOH      DO1             6.9366466180       34.5840612963        3.8136905248  MEOH      1191            0.0000000000
     26865      1883  MEOH      HO1             6.1222364616       34.9978278763        4.1811751758  MEOH      1191            0.0000000000
     26866      1883  MEOH      HO2             6.8903974163       33.9056393870        3.1398036445  MEOH      1191            0.0000000000
     26867      1883  MEOH      H1A             8.7042044401       35.2999010653        2.9917553659  MEOH      1191            0.0000000000
     26868      1883  MEOH      H1B             7.7903053792       36.4808232415        4.0245379936  MEOH      1191            0.0000000000
     26869      1883  MEOH      H1C             7.1810236606       36.0643535216        2.3745322277  MEOH      1191            0.0000000000
     26870      1883  MEOH      LP1A            6.7180959175       34.4574562573        3.5781379204  MEOH      1191            0.0000000000
     26871      1883  MEOH      LP1B            7.0170362289       34.5401110850        4.1580965133  MEOH      1191            0.0000000000
     26872      1884  MEOH      C1            -20.5727264622       14.6537840372      -24.0735357251  MEOH      1192            0.0000000000
     26873      1884  MEOH      DC1           -20.5664286576       14.6571850838      -24.0813404105  MEOH      1192            0.0000000000
     26874      1884  MEOH      O1            -20.0537335092       15.6191834781      -23.1556779690  MEOH      1192            0.0000000000
     26875      1884  MEOH      DO1           -20.0478926383       15.6262710785      -23.1668572399  MEOH      1192            0.0000000000
     26876      1884  MEOH      HO1           -20.7476282488       16.2841392204      -23.0243617437  MEOH      1192            0.0000000000
     26877      1884  MEOH      HO2           -19.7575404543       15.1045342917      -22.3886669586  MEOH      1192            0.0000000000
     26878      1884  MEOH      H1A           -19.8447348884       13.8231111231      -24.1932511333  MEOH      1192            0.0000000000
     26879      1884  MEOH      H1B           -20.7501803267       15.1254695558      -25.0636588981  MEOH      1192            0.0000000000
     26880      1884  MEOH      H1C           -21.5284422085       14.2413384835      -23.6851839783  MEOH      1192            0.0000000000
     26881      1884  MEOH      LP1A          -20.1251778677       15.5223761559      -22.8270078518  MEOH      1192            0.0000000000
     26882      1884  MEOH      LP1B          -19.8855300574       15.8717902026      -23.3300265897  MEOH      1192            0.0000000000
     26883      1885  MEOH      C1             16.8749283966      -23.9831882573      -10.9780942179  MEOH      1193            0.0000000000
     26884      1885  MEOH      DC1            16.8633113612      -23.9706462759      -10.9821771939  MEOH      1193            0.0000000000
     26885      1885  MEOH      O1             15.4957435317      -24.0068355544      -11.3517442163  MEOH      1193            0.0000000000
     26886      1885  MEOH      DO1            15.4898848260      -23.9993575484      -11.3623335444  MEOH      1193            0.0000000000
     26887      1885  MEOH      HO1            15.3099193896      -24.9093704188      -11.6547297084  MEOH      1193            0.0000000000
     26888      1885  MEOH      HO2            15.0132706657      -23.6550589807      -10.5873011669  MEOH      1193            0.0000000000
     26889      1885  MEOH      H1A            17.1595315316      -22.9649680292      -10.6367005676  MEOH      1193            0.0000000000
     26890      1885  MEOH      H1B            17.5112882501      -24.2782031079      -11.8396819240  MEOH      1193            0.0000000000
     26891      1885  MEOH      H1C            17.0517805944      -24.7020351327      -10.1496598694  MEOH      1193            0.0000000000
     26892      1885  MEOH      LP1A           15.2981258925      -24.0894301633      -11.0749312845  MEOH      1193            0.0000000000
     26893      1885  MEOH      LP1B           15.4613455927      -23.9171252083      -11.6882985739  MEOH      1193            0.0000000000
     26894      1886  MEOH      C1             30.3409898672       33.4747115369      -36.6363277301  MEOH      1194            0.0000000000
     26895      1886  MEOH      DC1            30.3308770250       33.4717432895      -36.6206952538  MEOH      1194            0.0000000000
     26896      1886  MEOH      O1             31.2188673226       32.3863020331      -36.8847580762  MEOH      1194            0.0000000000
     26897      1886  MEOH      DO1            31.2171706057       32.3977124491      -36.8755621892  MEOH      1194            0.0000000000
     26898      1886  MEOH      HO1            32.0142803263       32.4505232945      -36.3333110859  MEOH      1194            0.0000000000
     26899      1886  MEOH      HO2            30.6612547757       31.5926742491      -36.8958571109  MEOH      1194            0.0000000000
     26900      1886  MEOH      H1A            29.5197585839       33.4764890509      -37.3845903992  MEOH      1194            0.0000000000
     26901      1886  MEOH      H1B            30.9082225596       34.4277248326      -36.7021588143  MEOH      1194            0.0000000000
     26902      1886  MEOH      H1C            29.8868181635       33.3815232555      -35.6266916532  MEOH      1194            0.0000000000
     26903      1886  MEOH      LP1A           31.1398966632       32.1182921269      -36.6739635668  MEOH      1194            0.0000000000
     26904      1886  MEOH      LP1B           31.4384594129       32.4666601521      -37.1451844315  MEOH      1194            0.0000000000
     26905      1887  MEOH      C1             -8.5263982959       -8.3281682606      -21.1609453972  MEOH      1195            0.0000000000
     26906      1887  MEOH      DC1            -8.5226679680       -8.3409537653      -21.1805123303  MEOH      1195            0.0000000000
     26907      1887  MEOH      O1             -8.3544004441       -7.6029077052      -19.9429643674  MEOH      1195            0.0000000000
     26908      1887  MEOH      DO1            -8.3432486440       -7.6133415354      -19.9642653909  MEOH      1195            0.0000000000
     26909      1887  MEOH      HO1            -8.9909409641       -6.8714944708      -19.9155627828  MEOH      1195            0.0000000000
     26910      1887  MEOH      HO2            -8.3793230439       -8.2697161623      -19.2389435252  MEOH      1195            0.0000000000
     26911      1887  MEOH      H1A            -7.8203032316       -9.1857689210      -21.1774338298  MEOH      1195            0.0000000000
     26912      1887  MEOH      H1B            -8.3104784051       -7.6699779432      -22.0295564191  MEOH      1195            0.0000000000
     26913      1887  MEOH      H1C            -9.5683443227       -8.7078897298      -21.2278862894  MEOH      1195            0.0000000000
     26914      1887  MEOH      LP1A           -8.5546445339       -7.7417065251      -19.6916932148  MEOH      1195            0.0000000000
     26915      1887  MEOH      LP1B           -8.1168640280       -7.3496489831      -19.9869697162  MEOH      1195            0.0000000000
     26916      1888  MEOH      C1             32.2552120997        8.8094410044       27.4007093164  MEOH      1196            0.0000000000
     26917      1888  MEOH      DC1            32.2592879228        8.8202996493       27.3997584337  MEOH      1196            0.0000000000
     26918      1888  MEOH      O1             31.3702226529        7.8363187705       27.9543477179  MEOH      1196            0.0000000000
     26919      1888  MEOH      DO1            31.3694217146        7.8491942115       27.9548812870  MEOH      1196            0.0000000000
     26920      1888  MEOH      HO1            30.7071567569        7.6229630620       27.2792751586  MEOH      1196            0.0000000000
     26921      1888  MEOH      HO2            31.9454208665        7.1297136480       28.2871482827  MEOH      1196            0.0000000000
     26922      1888  MEOH      H1A            33.0398803691        9.0577192895       28.1470166272  MEOH      1196            0.0000000000
     26923      1888  MEOH      H1B            31.6963726733        9.7330641982       27.1381456238  MEOH      1196            0.0000000000
     26924      1888  MEOH      H1C            32.7484334738        8.4014621367       26.4926306195  MEOH      1196            0.0000000000
     26925      1888  MEOH      LP1A           31.4922251029        7.5142726704       27.8918840354  MEOH      1196            0.0000000000
     26926      1888  MEOH      LP1B           31.1057208643        7.9952677557       28.1194962083  MEOH      1196            0.0000000000
     26927      1889  MEOH      C1            -22.5333933073       25.1416067938      -25.7652176337  MEOH      1197            0.0000000000
     26928      1889  MEOH      DC1           -22.5288705014       25.1372679943      -25.7828414687  MEOH      1197            0.0000000000
     26929      1889  MEOH      O1            -21.7457978346       25.3652580754      -26.9374954029  MEOH      1197            0.0000000000
     26930      1889  MEOH      DO1           -21.7389929189       25.3553950817      -26.9560404361  MEOH      1197            0.0000000000
     26931      1889  MEOH      HO1           -22.2545924302       25.9908045371      -27.4766796791  MEOH      1197            0.0000000000
     26932      1889  MEOH      HO2           -20.8717368935       25.6267703666      -26.6080583171  MEOH      1197            0.0000000000
     26933      1889  MEOH      H1A           -22.0039222506       24.4743277910      -25.0519714401  MEOH      1197            0.0000000000
     26934      1889  MEOH      H1B           -23.5050619619       24.6771247855      -26.0380499830  MEOH      1197            0.0000000000
     26935      1889  MEOH      H1C           -22.7278528213       26.1128413499      -25.2620179367  MEOH      1197            0.0000000000
     26936      1889  MEOH      LP1A          -21.5250852223       25.6316536387      -26.8843978830  MEOH      1197            0.0000000000
     26937      1889  MEOH      LP1B          -21.8266321123       25.1291249845      -27.1828665156  MEOH      1197            0.0000000000
     26938      1890  MEOH      C1             33.4557298847       -7.7716328130        6.6717136529  MEOH      1198            0.0000000000
     26939      1890  MEOH      DC1            33.4467320540       -7.7749988650        6.6710501697  MEOH      1198            0.0000000000
     26940      1890  MEOH      O1             33.9446984521       -8.0727945011        5.3643531952  MEOH      1198            0.0000000000
     26941      1890  MEOH      DO1            33.9393171359       -8.0646831828        5.3609656725  MEOH      1198            0.0000000000
     26942      1890  MEOH      HO1            34.8356745029       -8.4379034310        5.4816440630  MEOH      1198            0.0000000000
     26943      1890  MEOH      HO2            33.2614089108       -8.6257034843        4.9541007618  MEOH      1198            0.0000000000
     26944      1890  MEOH      H1A            32.4400350808       -7.3269006868        6.6017250673  MEOH      1198            0.0000000000
     26945      1890  MEOH      H1B            34.1307030682       -7.0441560206        7.1712231304  MEOH      1198            0.0000000000
     26946      1890  MEOH      H1C            33.3994247768       -8.7012192789        7.2775351939  MEOH      1198            0.0000000000
     26947      1890  MEOH      LP1A           33.8538652819       -8.3986980966        5.2747084428  MEOH      1198            0.0000000000
     26948      1890  MEOH      LP1B           34.1076807168       -7.7935947420        5.2302477297  MEOH      1198            0.0000000000
     26949      1891  MEOH      C1            -12.2429337262        5.7501633226       -7.6149305489  MEOH      1199            0.0000000000
     26950      1891  MEOH      DC1           -12.2605877279        5.7580479902       -7.6076771098  MEOH      1199            0.0000000000
     26951      1891  MEOH      O1            -11.4848234020        6.1306366570       -8.7608589078  MEOH      1199            0.0000000000
     26952      1891  MEOH      DO1           -11.4978915725        6.1370308897       -8.7590468946  MEOH      1199            0.0000000000
     26953      1891  MEOH      HO1           -12.0293487639        5.9724561436       -9.5478602137  MEOH      1199            0.0000000000
     26954      1891  MEOH      HO2           -11.1270638506        7.0108094319       -8.5654004955  MEOH      1199            0.0000000000
     26955      1891  MEOH      H1A           -11.5872387859        5.7822828905       -6.7186306656  MEOH      1199            0.0000000000
     26956      1891  MEOH      H1B           -12.6229664497        4.7121402266       -7.7263046125  MEOH      1199            0.0000000000
     26957      1891  MEOH      H1C           -13.0913047311        6.4542502386       -7.4776379683  MEOH      1199            0.0000000000
     26958      1891  MEOH      LP1A          -11.5370147907        6.4693628607       -8.8318562170  MEOH      1199            0.0000000000
     26959      1891  MEOH      LP1B          -11.2965554639        5.8587704313       -8.8755059260  MEOH      1199            0.0000000000
     26960      1892  MEOH      C1            -22.2165323832       -7.5234250876        5.3667193943  MEOH      1200            0.0000000000
     26961      1892  MEOH      DC1           -22.2206242194       -7.5377028531        5.3653500477  MEOH      1200            0.0000000000
     26962      1892  MEOH      O1            -22.7451744533       -6.4349461424        6.1285443087  MEOH      1200            0.0000000000
     26963      1892  MEOH      DO1           -22.7536134150       -6.4587273643        6.1375054621  MEOH      1200            0.0000000000
     26964      1892  MEOH      HO1           -22.7800503115       -5.6454153307        5.5661167383  MEOH      1200            0.0000000000
     26965      1892  MEOH      HO2           -23.5262976151       -6.7706709230        6.5954870022  MEOH      1200            0.0000000000
     26966      1892  MEOH      H1A           -21.9576916329       -8.3639240980        6.0456036844  MEOH      1200            0.0000000000
     26967      1892  MEOH      H1B           -21.2983206061       -7.1922706149        4.8361113946  MEOH      1200            0.0000000000
     26968      1892  MEOH      H1C           -22.9684345282       -7.8840853496        4.6326292498  MEOH      1200            0.0000000000
     26969      1892  MEOH      LP1A          -23.0940906453       -6.4284328273        6.1018035592  MEOH      1200            0.0000000000
     26970      1892  MEOH      LP1B          -22.4857878421       -6.2660956718        6.2919704526  MEOH      1200            0.0000000000
     26971      1893  MEOH      C1             34.3285347274       25.6017952598      -13.5221526500  MEOH      1201            0.0000000000
     26972      1893  MEOH      DC1            34.3239573860       25.6049513166      -13.5196607285  MEOH      1201            0.0000000000
     26973      1893  MEOH      O1             33.2167407332       26.0167897320      -14.3187070171  MEOH      1201            0.0000000000
     26974      1893  MEOH      DO1            33.2111509258       26.0160802283      -14.3169245621  MEOH      1201            0.0000000000
     26975      1893  MEOH      HO1            32.4104776301       25.7324190991      -13.8604787424  MEOH      1201            0.0000000000
     26976      1893  MEOH      HO2            33.3620194962       26.9572649167      -14.5065913124  MEOH      1201            0.0000000000
     26977      1893  MEOH      H1A            35.2751879957       25.8527842025      -14.0467221324  MEOH      1201            0.0000000000
     26978      1893  MEOH      H1B            34.2905179332       24.5038530688      -13.3566272156  MEOH      1201            0.0000000000
     26979      1893  MEOH      H1C            34.3103206633       26.1228541025      -12.5410884675  MEOH      1201            0.0000000000
     26980      1893  MEOH      LP1A           33.1181930562       26.3400217126      -14.2275508760  MEOH      1201            0.0000000000
     26981      1893  MEOH      LP1B           33.1362610044       25.7676399094      -14.5509727682  MEOH      1201            0.0000000000
     26982      1894  MEOH      C1              6.7833345156       13.3249742713       -9.6769878444  MEOH      1202            0.0000000000
     26983      1894  MEOH      DC1             6.7813503557       13.3457956721       -9.6817673236  MEOH      1202            0.0000000000
     26984      1894  MEOH      O1              6.3189060872       14.3874993478      -10.5083311622  MEOH      1202            0.0000000000
     26985      1894  MEOH      DO1             6.3242586424       14.3935830367      -10.5173661906  MEOH      1202            0.0000000000
     26986      1894  MEOH      HO1             6.8522058904       15.1808168786      -10.3435931405  MEOH      1202            0.0000000000
     26987      1894  MEOH      HO2             6.1952793744       14.0163547508      -11.3959505198  MEOH      1202            0.0000000000
     26988      1894  MEOH      H1A             6.0109890426       12.5267840158       -9.6506100397  MEOH      1202            0.0000000000
     26989      1894  MEOH      H1B             6.9438245158       13.6863791260       -8.6387438984  MEOH      1202            0.0000000000
     26990      1894  MEOH      H1C             7.7205041272       12.8788510502      -10.0732304352  MEOH      1202            0.0000000000
     26991      1894  MEOH      LP1A            6.4860891479       14.3807937338      -10.8157475882  MEOH      1202            0.0000000000
     26992      1894  MEOH      LP1B            6.0657931325       14.5655431343      -10.3448250698  MEOH      1202            0.0000000000
     26993      1895  MEOH      C1             35.8157230807       -0.7270597490      -20.6349657854  MEOH      1203            0.0000000000
     26994      1895  MEOH      DC1            35.8091514233       -0.7172562098      -20.6379660587  MEOH      1203            0.0000000000
     26995      1895  MEOH      O1             34.8329829896       -1.7586046212      -20.5464080222  MEOH      1203            0.0000000000
     26996      1895  MEOH      DO1            34.8136111558       -1.7406656887      -20.5437640106  MEOH      1203            0.0000000000
     26997      1895  MEOH      HO1            35.3010900685       -2.4841950013      -20.1044868042  MEOH      1203            0.0000000000
     26998      1895  MEOH      HO2            34.0286221695       -1.3682220899      -20.1702363175  MEOH      1203            0.0000000000
     26999      1895  MEOH      H1A            35.4760105573        0.0515354908      -21.3510005989  MEOH      1203            0.0000000000
     27000      1895  MEOH      H1B            36.7722049753       -1.1461832897      -21.0141739664  MEOH      1203            0.0000000000
     27001      1895  MEOH      H1C            35.9857913168       -0.2829077047      -19.6309106290  MEOH      1203            0.0000000000
     27002      1895  MEOH      LP1A           34.6510387454       -1.7254130091      -20.2492639344  MEOH      1203            0.0000000000
     27003      1895  MEOH      LP1B           34.8424779539       -1.9579863509      -20.8339089292  MEOH      1203            0.0000000000
     27004      1896  MEOH      C1             -1.1981868841       26.2561454177      -19.3343229515  MEOH      1204            0.0000000000
     27005      1896  MEOH      DC1            -1.2071688441       26.2748274217      -19.3575873767  MEOH      1204            0.0000000000
     27006      1896  MEOH      O1             -1.1471468992       27.0664273643      -20.5039089759  MEOH      1204            0.0000000000
     27007      1896  MEOH      DO1            -1.1316005230       27.0857289847      -20.5305840816  MEOH      1204            0.0000000000
     27008      1896  MEOH      HO1            -0.5912712626       26.5463076147      -21.1050559828  MEOH      1204            0.0000000000
     27009      1896  MEOH      HO2            -2.0715552651       27.2576368021      -20.7270863134  MEOH      1204            0.0000000000
     27010      1896  MEOH      H1A            -1.8087422864       26.7301296547      -18.5362740533  MEOH      1204            0.0000000000
     27011      1896  MEOH      H1B            -0.1742923058       26.0879316322      -18.9372524081  MEOH      1204            0.0000000000
     27012      1896  MEOH      H1C            -1.6484990742       25.2722794938      -19.5864097936  MEOH      1204            0.0000000000
     27013      1896  MEOH      LP1A           -1.4138471164       26.9871016082      -20.7162257642  MEOH      1204            0.0000000000
     27014      1896  MEOH      LP1B           -0.8785202658       27.2898289096      -20.4831368458  MEOH      1204            0.0000000000
     27015      1897  MEOH      C1            -23.4103442506        9.4626001066        3.8599512346  MEOH      1205            0.0000000000
     27016      1897  MEOH      DC1           -23.4173932147        9.4745120739        3.8452079563  MEOH      1205            0.0000000000
     27017      1897  MEOH      O1            -23.2329548860        9.2123378788        2.4602129108  MEOH      1205            0.0000000000
     27018      1897  MEOH      DO1           -23.2449310195        9.2195225410        2.4513254542  MEOH      1205            0.0000000000
     27019      1897  MEOH      HO1           -23.7540810478        8.4288743338        2.2246022200  MEOH      1205            0.0000000000
     27020      1897  MEOH      HO2           -23.3156036630       10.0596560987        1.9953247374  MEOH      1205            0.0000000000
     27021      1897  MEOH      H1A           -22.5958025964       10.1263204695        4.2209473218  MEOH      1205            0.0000000000
     27022      1897  MEOH      H1B           -23.3508511122        8.5218558550        4.4479833935  MEOH      1205            0.0000000000
     27023      1897  MEOH      H1C           -24.3977339543        9.9373925717        4.0442192136  MEOH      1205            0.0000000000
     27024      1897  MEOH      LP1A          -23.4730368565        9.3880173779        2.2758291778  MEOH      1205            0.0000000000
     27025      1897  MEOH      LP1B          -22.9562776828        9.0039461776        2.4099871790  MEOH      1205            0.0000000000
     27026      1898  MEOH      C1             32.0830968731      -30.2764359123      -35.8354128383  MEOH      1206            0.0000000000
     27027      1898  MEOH      DC1            32.0782575839      -30.2753503573      -35.8312108698  MEOH      1206            0.0000000000
     27028      1898  MEOH      O1             32.2372075477      -30.3639956164      -37.2466291253  MEOH      1206            0.0000000000
     27029      1898  MEOH      DO1            32.2334470575      -30.3630165804      -37.2421020485  MEOH      1206            0.0000000000
     27030      1898  MEOH      HO1            32.8404783954      -31.1029144880      -37.4225927220  MEOH      1206            0.0000000000
     27031      1898  MEOH      HO2            31.3348575450      -30.3758244072      -37.6023320244  MEOH      1206            0.0000000000
     27032      1898  MEOH      H1A            31.4927577712      -29.3720280332      -35.5748996232  MEOH      1206            0.0000000000
     27033      1898  MEOH      H1B            33.0779028598      -30.2090668549      -35.3453684928  MEOH      1206            0.0000000000
     27034      1898  MEOH      H1C            31.5427298292      -31.1757401389      -35.4699318324  MEOH      1206            0.0000000000
     27035      1898  MEOH      LP1A           31.9904113236      -30.5724592839      -37.3812936089  MEOH      1206            0.0000000000
     27036      1898  MEOH      LP1B           32.5028574899      -30.1613380839      -37.3508406060  MEOH      1206            0.0000000000
     27037      1899  MEOH      C1            -35.4643746144       23.6578773225      -25.9425582069  MEOH      1207            0.0000000000
     27038      1899  MEOH      DC1           -35.4681846434       23.6605451305      -25.9426835537  MEOH      1207            0.0000000000
     27039      1899  MEOH      O1            -36.8578136626       23.3411816848      -25.9928760797  MEOH      1207            0.0000000000
     27040      1899  MEOH      DO1           -36.8607740741       23.3400471485      -25.9965369881  MEOH      1207            0.0000000000
     27041      1899  MEOH      HO1           -37.3003226527       24.0619061070      -26.4678940803  MEOH      1207            0.0000000000
     27042      1899  MEOH      HO2           -36.9152815371       22.4286039612      -26.3166033461  MEOH      1207            0.0000000000
     27043      1899  MEOH      H1A           -34.9372259472       22.9323348009      -25.2867965643  MEOH      1207            0.0000000000
     27044      1899  MEOH      H1B           -35.3151157294       24.6777146583      -25.5278600082  MEOH      1207            0.0000000000
     27045      1899  MEOH      H1C           -35.0226818259       23.5962962530      -26.9601220885  MEOH      1207            0.0000000000
     27046      1899  MEOH      LP1A          -36.9271090688       23.1509706575      -26.2783894976  MEOH      1207            0.0000000000
     27047      1899  MEOH      LP1B          -37.0198318258       23.4686404903      -25.7100256463  MEOH      1207            0.0000000000
     27048      1900  MEOH      C1            -29.9290532055       31.4240329414        0.3828985010  MEOH      1208            0.0000000000
     27049      1900  MEOH      DC1           -29.9459230836       31.4162223716        0.4098544251  MEOH      1208            0.0000000000
     27050      1900  MEOH      O1            -30.5628466282       30.1813665731        0.0640141077  MEOH      1208            0.0000000000
     27051      1900  MEOH      DO1           -30.5870213747       30.1904512334        0.0833860384  MEOH      1208            0.0000000000
     27052      1900  MEOH      HO1           -30.4080112615       29.5288002889        0.7647874334  MEOH      1208            0.0000000000
     27053      1900  MEOH      HO2           -31.4271016622       30.3799841416       -0.3290689603  MEOH      1208            0.0000000000
     27054      1900  MEOH      H1A           -29.7677667433       32.0187929471       -0.5415300871  MEOH      1208            0.0000000000
     27055      1900  MEOH      H1B           -28.9427424425       31.2557229465        0.8657896117  MEOH      1208            0.0000000000
     27056      1900  MEOH      H1C           -30.5835871230       32.0304866616        1.0448050171  MEOH      1208            0.0000000000
     27057      1900  MEOH      LP1A          -30.8909534865       30.1796025315        0.1858450465  MEOH      1208            0.0000000000
     27058      1900  MEOH      LP1B          -30.3446546990       29.9797149050       -0.1209963968  MEOH      1208            0.0000000000
     27059      1901  MEOH      C1            -15.8304018025       -3.2808188258       -4.4415937138  MEOH      1209            0.0000000000
     27060      1901  MEOH      DC1           -15.8515683292       -3.3120420193       -4.4316132743  MEOH      1209            0.0000000000
     27061      1901  MEOH      O1            -16.9307890370       -3.7009092585       -3.6299407126  MEOH      1209            0.0000000000
     27062      1901  MEOH      DO1           -16.9527078731       -3.7117329966       -3.6223602837  MEOH      1209            0.0000000000
     27063      1901  MEOH      HO1           -17.2682633350       -4.5279109056       -4.0081990554  MEOH      1209            0.0000000000
     27064      1901  MEOH      HO2           -16.6127690158       -3.6635596239       -2.7143161871  MEOH      1209            0.0000000000
     27065      1901  MEOH      H1A           -15.4651091669       -2.2892638855       -4.0985177882  MEOH      1209            0.0000000000
     27066      1901  MEOH      H1B           -16.1498577660       -3.1706701895       -5.4999585690  MEOH      1209            0.0000000000
     27067      1901  MEOH      H1C           -14.9884716541       -4.0028257718       -4.3769361892  MEOH      1209            0.0000000000
     27068      1901  MEOH      LP1A          -16.8161317943       -3.9027451182       -3.3679941485  MEOH      1209            0.0000000000
     27069      1901  MEOH      LP1B          -17.2281833282       -3.5601836474       -3.7493263815  MEOH      1209            0.0000000000
     27070      1902  MEOH      C1             10.2637057697      -36.8815177332      -22.9794098871  MEOH      1210            0.0000000000
     27071      1902  MEOH      DC1            10.2530422902      -36.8788580423      -22.9631071423  MEOH      1210            0.0000000000
     27072      1902  MEOH      O1              8.8735552460      -36.7173753486      -22.6699883359  MEOH      1210            0.0000000000
     27073      1902  MEOH      DO1             8.8671389183      -36.7151955787      -22.6583521132  MEOH      1210            0.0000000000
     27074      1902  MEOH      HO1             8.7943140755      -36.4355657196      -21.7452158396  MEOH      1210            0.0000000000
     27075      1902  MEOH      HO2             8.4682481109      -36.2249400844      -23.4008328048  MEOH      1210            0.0000000000
     27076      1902  MEOH      H1A            10.3620574221      -37.4088599112      -23.9523221030  MEOH      1210            0.0000000000
     27077      1902  MEOH      H1B            10.7892336332      -37.4813660693      -22.2058961900  MEOH      1210            0.0000000000
     27078      1902  MEOH      H1C            10.7689822338      -35.8941823193      -23.0441051397  MEOH      1210            0.0000000000
     27079      1902  MEOH      LP1A            8.7722155260      -36.3906421078      -22.7439859746  MEOH      1210            0.0000000000
     27080      1902  MEOH      LP1B            8.7399888304      -37.0197733124      -22.5550297167  MEOH      1210            0.0000000000
     27081      1903  MEOH      C1            -27.8071014318      -30.4283938000       10.0351245197  MEOH      1211            0.0000000000
     27082      1903  MEOH      DC1           -27.8012446519      -30.4314429687       10.0283743932  MEOH      1211            0.0000000000
     27083      1903  MEOH      O1            -28.7548089016      -29.9938243326       11.0108863147  MEOH      1211            0.0000000000
     27084      1903  MEOH      DO1           -28.7497637212      -29.9968321366       11.0047128432  MEOH      1211            0.0000000000
     27085      1903  MEOH      HO1           -28.8408132932      -30.6828865075       11.6881577253  MEOH      1211            0.0000000000
     27086      1903  MEOH      HO2           -28.4971219098      -29.0921336522       11.2587801082  MEOH      1211            0.0000000000
     27087      1903  MEOH      H1A           -27.7535027590      -29.6756566603        9.2197503840  MEOH      1211            0.0000000000
     27088      1903  MEOH      H1B           -28.1284786122      -31.3992448459        9.6009748283  MEOH      1211            0.0000000000
     27089      1903  MEOH      H1C           -26.8055481336      -30.5352634373       10.5039431125  MEOH      1211            0.0000000000
     27090      1903  MEOH      LP1A          -28.5927885276      -29.8127032083       11.2627683044  MEOH      1211            0.0000000000
     27091      1903  MEOH      LP1B          -29.0772188369      -30.0922996016       10.9167882008  MEOH      1211            0.0000000000
     27092      1904  MEOH      C1              1.9081315517      -29.4308432823      -32.3391955716  MEOH      1212            0.0000000000
     27093      1904  MEOH      DC1             1.9124387726      -29.4361355493      -32.3304127320  MEOH      1212            0.0000000000
     27094      1904  MEOH      O1              1.8904581645      -28.0532549457      -32.7149358116  MEOH      1212            0.0000000000
     27095      1904  MEOH      DO1             1.8958833812      -28.0616406523      -32.7100651708  MEOH      1212            0.0000000000
     27096      1904  MEOH      HO1             1.6394389623      -27.5108995426      -31.9509070315  MEOH      1212            0.0000000000
     27097      1904  MEOH      HO2             2.7057776400      -27.8901289946      -33.2144796816  MEOH      1212            0.0000000000
     27098      1904  MEOH      H1A             1.9794633118      -30.0531085566      -33.2568113459  MEOH      1212            0.0000000000
     27099      1904  MEOH      H1B             0.9723501314      -29.7128001964      -31.8108638273  MEOH      1212            0.0000000000
     27100      1904  MEOH      H1C             2.7814455643      -29.6382628413      -31.6845042214  MEOH      1212            0.0000000000
     27101      1904  MEOH      LP1A            2.2071050815      -27.9120412122      -32.6670462360  MEOH      1212            0.0000000000
     27102      1904  MEOH      LP1B            1.5739510463      -27.9663810940      -32.8364931150  MEOH      1212            0.0000000000
     27103      1905  MEOH      C1              8.0817813876       -1.0691038534       -7.6171680801  MEOH      1213            0.0000000000
     27104      1905  MEOH      DC1             8.0838225729       -1.0732657468       -7.6028052511  MEOH      1213            0.0000000000
     27105      1905  MEOH      O1              7.1128952218       -0.0348200627       -7.5106109295  MEOH      1213            0.0000000000
     27106      1905  MEOH      DO1             7.1060912393       -0.0429542712       -7.5079873452  MEOH      1213            0.0000000000
     27107      1905  MEOH      HO1             6.8647831126        0.2095826523       -8.4159328027  MEOH      1213            0.0000000000
     27108      1905  MEOH      HO2             6.4610355264       -0.3394158429       -6.8600724225  MEOH      1213            0.0000000000
     27109      1905  MEOH      H1A             8.5491917934       -1.2425318594       -6.6243079489  MEOH      1213            0.0000000000
     27110      1905  MEOH      H1B             8.8614100658       -0.7543152060       -8.3433968537  MEOH      1213            0.0000000000
     27111      1905  MEOH      H1C             7.6139627474       -2.0129233672       -7.9702565206  MEOH      1213            0.0000000000
     27112      1905  MEOH      LP1A            6.7919350526       -0.1730193296       -7.4909759504  MEOH      1213            0.0000000000
     27113      1905  MEOH      LP1B            7.2713533274        0.2771025836       -7.5008491922  MEOH      1213            0.0000000000
     27114      1906  MEOH      C1             -7.9141019650       -1.6952833894      -36.6386049601  MEOH      1214            0.0000000000
     27115      1906  MEOH      DC1            -7.9135139937       -1.7093443197      -36.6336249213  MEOH      1214            0.0000000000
     27116      1906  MEOH      O1             -6.9652806133       -2.7647702694      -36.6146305384  MEOH      1214            0.0000000000
     27117      1906  MEOH      DO1            -6.9646580673       -2.7753617430      -36.6099048766  MEOH      1214            0.0000000000
     27118      1906  MEOH      HO1            -6.2281936473       -2.4788432668      -36.0526264854  MEOH      1214            0.0000000000
     27119      1906  MEOH      HO2            -7.4644933477       -3.5743969926      -36.4243906507  MEOH      1214            0.0000000000
     27120      1906  MEOH      H1A            -8.7084058648       -1.9114366286      -37.3847149331  MEOH      1214            0.0000000000
     27121      1906  MEOH      H1B            -7.4131998622       -0.7424714855      -36.9135005059  MEOH      1214            0.0000000000
     27122      1906  MEOH      H1C            -8.3881074800       -1.5780737139      -35.6406562317  MEOH      1214            0.0000000000
     27123      1906  MEOH      LP1A           -7.0400080188       -2.9852568486      -36.3532850137  MEOH      1214            0.0000000000
     27124      1906  MEOH      LP1B           -6.7384758049       -2.7295268915      -36.8788605201  MEOH      1214            0.0000000000
     27125      1907  MEOH      C1             21.8633530111       -9.0250481622      -22.1590021787  MEOH      1215            0.0000000000
     27126      1907  MEOH      DC1            21.8622167230       -9.0272344255      -22.1359252343  MEOH      1215            0.0000000000
     27127      1907  MEOH      O1             22.1376937890       -9.3847942618      -23.5124883251  MEOH      1215            0.0000000000
     27128      1907  MEOH      DO1            22.1334036033       -9.3842686830      -23.4932820701  MEOH      1215            0.0000000000
     27129      1907  MEOH      HO1            22.9585695869       -9.8997080901      -23.5563822257  MEOH      1215            0.0000000000
     27130      1907  MEOH      HO2            21.3096327989       -9.7376569062      -23.8740169558  MEOH      1215            0.0000000000
     27131      1907  MEOH      H1A            21.0075156588       -8.3171289027      -22.1322861100  MEOH      1215            0.0000000000
     27132      1907  MEOH      H1B            22.7468648264       -8.5261239624      -21.7064510584  MEOH      1215            0.0000000000
     27133      1907  MEOH      H1C            21.6122429106       -9.9338165456      -21.5712907332  MEOH      1215            0.0000000000
     27134      1907  MEOH      LP1A           21.9839211803       -9.6898019090      -23.5888055574  MEOH      1215            0.0000000000
     27135      1907  MEOH      LP1B           22.3279588003       -9.1347043554      -23.6666125093  MEOH      1215            0.0000000000
     27136      1908  MEOH      C1             12.5432327758      -14.1130871619       -4.3050759562  MEOH      1216            0.0000000000
     27137      1908  MEOH      DC1            12.5536034816      -14.1136515274       -4.3122812215  MEOH      1216            0.0000000000
     27138      1908  MEOH      O1             12.5476411634      -15.4452019572       -4.8090032105  MEOH      1216            0.0000000000
     27139      1908  MEOH      DO1            12.5611720238      -15.4387694099       -4.8128397159  MEOH      1216            0.0000000000
     27140      1908  MEOH      HO1            13.2234788171      -15.9554749202       -4.3359651890  MEOH      1216            0.0000000000
     27141      1908  MEOH      HO2            11.6252053964      -15.7445462582       -4.7888725052  MEOH      1216            0.0000000000
     27142      1908  MEOH      H1A            11.8077965589      -13.5055692508       -4.8746166132  MEOH      1216            0.0000000000
     27143      1908  MEOH      H1B            13.5590285347      -13.6744573045       -4.4054942059  MEOH      1216            0.0000000000
     27144      1908  MEOH      H1C            12.2506760811      -14.1171923596       -3.2332948555  MEOH      1216            0.0000000000
     27145      1908  MEOH      LP1A           12.3207436094      -15.6419392900       -4.6292480384  MEOH      1216            0.0000000000
     27146      1908  MEOH      LP1B           12.7668444469      -15.4696600378       -5.0807599450  MEOH      1216            0.0000000000
     27147      1909  MEOH      C1              3.9995445175       -6.7674307988       17.6765074139  MEOH      1217            0.0000000000
     27148      1909  MEOH      DC1             3.9948482075       -6.7785291943       17.6726587321  MEOH      1217            0.0000000000
     27149      1909  MEOH      O1              5.3174175767       -7.0044066525       18.1752495620  MEOH      1217            0.0000000000
     27150      1909  MEOH      DO1             5.3080988536       -7.0204461679       18.1674739967  MEOH      1217            0.0000000000
     27151      1909  MEOH      HO1             5.6844731018       -6.1603682589       18.4814675118  MEOH      1217            0.0000000000
     27152      1909  MEOH      HO2             5.2368060172       -7.7465781360       18.7945905549  MEOH      1217            0.0000000000
     27153      1909  MEOH      H1A             3.5572448273       -7.7261776955       17.3308249409  MEOH      1217            0.0000000000
     27154      1909  MEOH      H1B             4.0271435700       -6.0542790428       16.8250534413  MEOH      1217            0.0000000000
     27155      1909  MEOH      H1C             3.3632204768       -6.3529536111       18.4874459915  MEOH      1217            0.0000000000
     27156      1909  MEOH      LP1A            5.3039244982       -7.0849548870       18.5155875098  MEOH      1217            0.0000000000
     27157      1909  MEOH      LP1B            5.5506613781       -6.9747208984       17.9159889110  MEOH      1217            0.0000000000
     27158      1910  MEOH      C1            -22.8895643853      -23.6569076259      -10.5351873101  MEOH      1218            0.0000000000
     27159      1910  MEOH      DC1           -22.8876020356      -23.6614006710      -10.5344891331  MEOH      1218            0.0000000000
     27160      1910  MEOH      O1            -21.4934157095      -23.4962490702      -10.8007639333  MEOH      1218            0.0000000000
     27161      1910  MEOH      DO1           -21.4876313521      -23.5065517764      -10.7988488783  MEOH      1218            0.0000000000
     27162      1910  MEOH      HO1           -21.3932845002      -23.5078728074      -11.7655118951  MEOH      1218            0.0000000000
     27163      1910  MEOH      HO2           -21.2354904727      -22.6945757375      -10.3194174464  MEOH      1218            0.0000000000
     27164      1910  MEOH      H1A           -23.0706222195      -23.5963831752       -9.4407121609  MEOH      1218            0.0000000000
     27165      1910  MEOH      H1B           -23.2390519744      -24.6436014724      -10.9074972323  MEOH      1218            0.0000000000
     27166      1910  MEOH      H1C           -23.4654107394      -22.8506508841      -11.0378522527  MEOH      1218            0.0000000000
     27167      1910  MEOH      LP1A          -21.4146003367      -23.1561255256      -10.8253426120  MEOH      1218            0.0000000000
     27168      1910  MEOH      LP1B          -21.3364383142      -23.8089536048      -10.8093645944  MEOH      1218            0.0000000000
     27169      1911  MEOH      C1             34.0963261397       23.1584083524      -22.4918705013  MEOH      1219            0.0000000000
     27170      1911  MEOH      DC1            34.0940122756       23.1455930410      -22.4834736139  MEOH      1219            0.0000000000
     27171      1911  MEOH      O1             34.4760659055       21.7796917437      -22.4365843736  MEOH      1219            0.0000000000
     27172      1911  MEOH      DO1            34.4651857577       21.7699453784      -22.4255698145  MEOH      1219            0.0000000000
     27173      1911  MEOH      HO1            34.4687514580       21.4560771947      -23.3509804166  MEOH      1219            0.0000000000
     27174      1911  MEOH      HO2            35.3118776911       21.7641693378      -21.9445704367  MEOH      1219            0.0000000000
     27175      1911  MEOH      H1A            34.0951682649       23.5890244543      -21.4677174693  MEOH      1219            0.0000000000
     27176      1911  MEOH      H1B            33.0811064377       23.2655116200      -22.9302525799  MEOH      1219            0.0000000000
     27177      1911  MEOH      H1C            34.8201492491       23.7327795230      -23.1087164032  MEOH      1219            0.0000000000
     27178      1911  MEOH      LP1A           34.8241102751       21.7503935010      -22.4590950322  MEOH      1219            0.0000000000
     27179      1911  MEOH      LP1B           34.1925375375       21.5790734034      -22.3934109315  MEOH      1219            0.0000000000
     27180      1912  MEOH      C1            -15.2149034600       -2.1909320553       36.7287853913  MEOH      1220            0.0000000000
     27181      1912  MEOH      DC1           -15.2089379290       -2.2031619445       36.7357282996  MEOH      1220            0.0000000000
     27182      1912  MEOH      O1            -14.6119909568       -3.2683621993       36.0113023407  MEOH      1220            0.0000000000
     27183      1912  MEOH      DO1           -14.6039290804       -3.2762321863       36.0202793834  MEOH      1220            0.0000000000
     27184      1912  MEOH      HO1           -14.2947765296       -3.9157672121       36.6602566969  MEOH      1220            0.0000000000
     27185      1912  MEOH      HO2           -15.2616320945       -3.5344143093       35.3419125676  MEOH      1220            0.0000000000
     27186      1912  MEOH      H1A           -15.5351439760       -1.4061045105       36.0105843488  MEOH      1220            0.0000000000
     27187      1912  MEOH      H1B           -14.4852669039       -1.7456379280       37.4384787308  MEOH      1220            0.0000000000
     27188      1912  MEOH      H1C           -16.1127539426       -2.5471517670       37.2776870483  MEOH      1220            0.0000000000
     27189      1912  MEOH      LP1A          -14.8527858097       -3.5103466657       35.9340925170  MEOH      1220            0.0000000000
     27190      1912  MEOH      LP1B          -14.2725001731       -3.2017506178       35.9583032373  MEOH      1220            0.0000000000
     27191      1913  MEOH      C1             -6.0935581002       -1.0947387098      -19.2225225573  MEOH      1221            0.0000000000
     27192      1913  MEOH      DC1            -6.0869067625       -1.0990712734      -19.2375109493  MEOH      1221            0.0000000000
     27193      1913  MEOH      O1             -5.9581892108        0.1476033099      -18.5282466203  MEOH      1221            0.0000000000
     27194      1913  MEOH      DO1            -5.9449842697        0.1413994316      -18.5325670161  MEOH      1221            0.0000000000
     27195      1913  MEOH      HO1            -6.6416220225        0.1793644330      -17.8406342120  MEOH      1221            0.0000000000
     27196      1913  MEOH      HO2            -5.0172002166        0.2337796347      -18.3091271237  MEOH      1221            0.0000000000
     27197      1913  MEOH      H1A            -5.4477380438       -1.0876252597      -20.1265064368  MEOH      1221            0.0000000000
     27198      1913  MEOH      H1B            -7.1534360446       -1.2352428610      -19.5245793840  MEOH      1221            0.0000000000
     27199      1913  MEOH      H1C            -5.7965906635       -1.9457910462      -18.5730294745  MEOH      1221            0.0000000000
     27200      1913  MEOH      LP1A           -5.7351420236        0.1116616325      -18.2609300513  MEOH      1221            0.0000000000
     27201      1913  MEOH      LP1B           -6.1497209270        0.3944107708      -18.6860492786  MEOH      1221            0.0000000000
     27202      1914  MEOH      C1            -12.2594369540       17.9706578152       10.9475886953  MEOH      1222            0.0000000000
     27203      1914  MEOH      DC1           -12.2644715513       17.9782268040       10.9578846303  MEOH      1222            0.0000000000
     27204      1914  MEOH      O1            -13.6264976361       18.0774069047       10.5381065003  MEOH      1222            0.0000000000
     27205      1914  MEOH      DO1           -13.6289245379       18.0876211061       10.5347383131  MEOH      1222            0.0000000000
     27206      1914  MEOH      HO1           -14.1836201035       18.0855672479       11.3321140353  MEOH      1222            0.0000000000
     27207      1914  MEOH      HO2           -13.6646210306       18.7699937274        9.8600430078  MEOH      1222            0.0000000000
     27208      1914  MEOH      H1A           -11.6397667245       17.6631067940       10.0782543647  MEOH      1222            0.0000000000
     27209      1914  MEOH      H1B           -12.1657930854       17.1884007840       11.7309313808  MEOH      1222            0.0000000000
     27210      1914  MEOH      H1C           -11.8821030904       18.9444961284       11.3265070184  MEOH      1222            0.0000000000
     27211      1914  MEOH      LP1A          -13.7172071372       18.4143121295       10.5104179478  MEOH      1222            0.0000000000
     27212      1914  MEOH      LP1B          -13.7611889284       17.7585431929       10.4862973399  MEOH      1222            0.0000000000
     27213      1915  MEOH      C1             -1.5564493231       -3.9652964763      -27.4867492549  MEOH      1223            0.0000000000
     27214      1915  MEOH      DC1            -1.5456103927       -3.9676334109      -27.4850207990  MEOH      1223            0.0000000000
     27215      1915  MEOH      O1             -0.5376281496       -3.2741222661      -28.2041718733  MEOH      1223            0.0000000000
     27216      1915  MEOH      DO1            -0.5345371465       -3.2816170578      -28.2005790820  MEOH      1223            0.0000000000
     27217      1915  MEOH      HO1             0.1284388107       -2.9284057975      -27.5895704345  MEOH      1223            0.0000000000
     27218      1915  MEOH      HO2            -0.3064328180       -3.8167270013      -28.9742555180  MEOH      1223            0.0000000000
     27219      1915  MEOH      H1A            -2.4239191895       -4.1405080322      -28.1584023957  MEOH      1223            0.0000000000
     27220      1915  MEOH      H1B            -1.9135708340       -3.3649644934      -26.6228124871  MEOH      1223            0.0000000000
     27221      1915  MEOH      H1C            -1.1708786143       -4.9486318609      -27.1422093433  MEOH      1223            0.0000000000
     27222      1915  MEOH      LP1A           -0.2841938337       -3.4970417822      -28.2967890255  MEOH      1223            0.0000000000
     27223      1915  MEOH      LP1B           -0.6252640930       -2.9373858299      -28.2419675603  MEOH      1223            0.0000000000
     27224      1916  MEOH      C1            -30.3411463173       -0.2552162197       -7.6658626461  MEOH      1224            0.0000000000
     27225      1916  MEOH      DC1           -30.3352920372       -0.2609112681       -7.6746472076  MEOH      1224            0.0000000000
     27226      1916  MEOH      O1            -30.5204708578       -0.1703187744       -9.0763100679  MEOH      1224            0.0000000000
     27227      1916  MEOH      DO1           -30.5212661968       -0.1809538119       -9.0769122679  MEOH      1224            0.0000000000
     27228      1916  MEOH      HO1           -30.0060823164       -0.8833542766       -9.4860475474  MEOH      1224            0.0000000000
     27229      1916  MEOH      HO2           -31.4783496492       -0.1064635772       -9.2152011580  MEOH      1224            0.0000000000
     27230      1916  MEOH      H1A           -30.8227383689        0.6132294124       -7.1676736440  MEOH      1224            0.0000000000
     27231      1916  MEOH      H1B           -29.2599833986       -0.2528490750       -7.4101242244  MEOH      1224            0.0000000000
     27232      1916  MEOH      H1C           -30.8199815287       -1.1761422189       -7.2697147642  MEOH      1224            0.0000000000
     27233      1916  MEOH      LP1A          -30.7992546529       -0.3585087179       -9.1730785585  MEOH      1224            0.0000000000
     27234      1916  MEOH      LP1B          -30.2786950975        0.0412318349       -9.2152014696  MEOH      1224            0.0000000000
     27235      1917  MEOH      C1            -23.7567078074       11.6234864996       13.0936661685  MEOH      1225            0.0000000000
     27236      1917  MEOH      DC1           -23.7679123006       11.6387911944       13.1007659239  MEOH      1225            0.0000000000
     27237      1917  MEOH      O1            -22.9983866461       11.6339248526       14.3071977380  MEOH      1225            0.0000000000
     27238      1917  MEOH      DO1           -23.0127088793       11.6467237602       14.3178546196  MEOH      1225            0.0000000000
     27239      1917  MEOH      HO1           -22.0961208108       11.3680621064       14.0702729340  MEOH      1225            0.0000000000
     27240      1917  MEOH      HO2           -23.1872737132       12.4788262123       14.7446487281  MEOH      1225            0.0000000000
     27241      1917  MEOH      H1A           -24.8421493206       11.7140909676       13.3125920746  MEOH      1225            0.0000000000
     27242      1917  MEOH      H1B           -23.6316613986       10.6596306026       12.5554596974  MEOH      1225            0.0000000000
     27243      1917  MEOH      H1C           -23.4298734042       12.4522163686       12.4298084435  MEOH      1225            0.0000000000
     27244      1917  MEOH      LP1A          -22.8605211747       11.9513518655       14.3594777848  MEOH      1225            0.0000000000
     27245      1917  MEOH      LP1B          -23.0187183795       11.3215503730       14.4637506208  MEOH      1225            0.0000000000
     27246      1918  MEOH      C1             -1.1573304114      -28.3113307950        2.2314696937  MEOH      1226            0.0000000000
     27247      1918  MEOH      DC1            -1.1655607155      -28.2950402687        2.2296849925  MEOH      1226            0.0000000000
     27248      1918  MEOH      O1             -1.4809973582      -27.0119043421        1.7273666383  MEOH      1226            0.0000000000
     27249      1918  MEOH      DO1            -1.4924101795      -27.0014969341        1.7229376875  MEOH      1226            0.0000000000
     27250      1918  MEOH      HO1            -0.8646285852      -26.3961756794        2.1538261910  MEOH      1226            0.0000000000
     27251      1918  MEOH      HO2            -1.4764100557      -27.1008952796        0.7614683156  MEOH      1226            0.0000000000
     27252      1918  MEOH      H1A            -1.8476591424      -29.0678105417        1.8007660399  MEOH      1226            0.0000000000
     27253      1918  MEOH      H1B            -1.2385145105      -28.3262899703        3.3393985569  MEOH      1226            0.0000000000
     27254      1918  MEOH      H1C            -0.1202676132      -28.5942451638        1.9507897826  MEOH      1226            0.0000000000
     27255      1918  MEOH      LP1A           -1.2990185743      -26.9480692584        1.4352899286  MEOH      1226            0.0000000000
     27256      1918  MEOH      LP1B           -1.7254770231      -26.8628891399        1.9286727807  MEOH      1226            0.0000000000
     27257      1919  MEOH      C1            -28.3812647371      -29.3939188622      -15.1453036009  MEOH      1227            0.0000000000
     27258      1919  MEOH      DC1           -28.3831875165      -29.3952865652      -15.1347531862  MEOH      1227            0.0000000000
     27259      1919  MEOH      O1            -29.0474658571      -28.8788210598      -16.2979102917  MEOH      1227            0.0000000000
     27260      1919  MEOH      DO1           -29.0507679813      -28.8807930341      -16.2859003921  MEOH      1227            0.0000000000
     27261      1919  MEOH      HO1           -28.9782550820      -29.5318204443      -17.0118442329  MEOH      1227            0.0000000000
     27262      1919  MEOH      HO2           -29.9133665200      -28.5645834810      -15.9939846643  MEOH      1227            0.0000000000
     27263      1919  MEOH      H1A           -28.2968336676      -28.5994070533      -14.3733299090  MEOH      1227            0.0000000000
     27264      1919  MEOH      H1B           -27.3592836418      -29.7353576366      -15.4160344713  MEOH      1227            0.0000000000
     27265      1919  MEOH      H1C           -28.9601309052      -30.2446927222      -14.7264733237  MEOH      1227            0.0000000000
     27266      1919  MEOH      LP1A          -29.3853268061      -28.9699826034      -16.2916212474  MEOH      1227            0.0000000000
     27267      1919  MEOH      LP1B          -28.8240016093      -28.6917259529      -16.4917121261  MEOH      1227            0.0000000000
     27268      1920  MEOH      C1             -9.6431028907       -9.4728148052       29.5958084160  MEOH      1228            0.0000000000
     27269      1920  MEOH      DC1            -9.6422215097       -9.4779320702       29.5942639024  MEOH      1228            0.0000000000
     27270      1920  MEOH      O1             -8.6786334097       -8.4911831357       29.9772701432  MEOH      1228            0.0000000000
     27271      1920  MEOH      DO1            -8.6805225593       -8.4921078496       29.9821180161  MEOH      1228            0.0000000000
     27272      1920  MEOH      HO1            -8.7208695284       -8.3911245496       30.9411707556  MEOH      1228            0.0000000000
     27273      1920  MEOH      HO2            -7.8516497622       -8.7422740609       29.5368710129  MEOH      1228            0.0000000000
     27274      1920  MEOH      H1A            -9.7210071692       -9.5023865329       28.4879377393  MEOH      1228            0.0000000000
     27275      1920  MEOH      H1B           -10.6361406906       -9.2101986726       30.0191637001  MEOH      1228            0.0000000000
     27276      1920  MEOH      H1C            -9.3326098008      -10.4732669287       29.9659578321  MEOH      1228            0.0000000000
     27277      1920  MEOH      LP1A           -8.3697777270       -8.6441552417       30.0381610460  MEOH      1228            0.0000000000
     27278      1920  MEOH      LP1B           -8.8227685761       -8.1723382206       29.9693345317  MEOH      1228            0.0000000000
     27279      1921  MEOH      C1             36.4708386680        1.4081185789       35.3425115454  MEOH      1229            0.0000000000
     27280      1921  MEOH      DC1            36.4686714019        1.4101505800       35.3439795501  MEOH      1229            0.0000000000
     27281      1921  MEOH      O1             35.4992485348        1.1469262459       36.3581802010  MEOH      1229            0.0000000000
     27282      1921  MEOH      DO1            35.4986819356        1.1455497251       36.3603328869  MEOH      1229            0.0000000000
     27283      1921  MEOH      HO1            35.9761980824        0.7997492774       37.1281719430  MEOH      1229            0.0000000000
     27284      1921  MEOH      HO2            34.9763673861        1.9597965719       36.4402602688  MEOH      1229            0.0000000000
     27285      1921  MEOH      H1A            35.9596931337        1.7449044885       34.4153510988  MEOH      1229            0.0000000000
     27286      1921  MEOH      H1B            37.0452163345        0.4844079959       35.1163035520  MEOH      1229            0.0000000000
     27287      1921  MEOH      H1C            37.1666788068        2.2063002293       35.6787161777  MEOH      1229            0.0000000000
     27288      1921  MEOH      LP1A           35.4513361299        1.4327924551       36.5543559179  MEOH      1229            0.0000000000
     27289      1921  MEOH      LP1B           35.3761324888        0.8209711875       36.3250782508  MEOH      1229            0.0000000000
     27290      1922  MEOH      C1             18.8508240144       -4.2383936790      -33.6082065210  MEOH      1230            0.0000000000
     27291      1922  MEOH      DC1            18.8425281232       -4.2412555666      -33.6030187831  MEOH      1230            0.0000000000
     27292      1922  MEOH      O1             17.6943736971       -3.4176100953      -33.4765296691  MEOH      1230            0.0000000000
     27293      1922  MEOH      DO1            17.6932232253       -3.4315526550      -33.4719487102  MEOH      1230            0.0000000000
     27294      1922  MEOH      HO1            17.6149677890       -2.8779019239      -34.2785956211  MEOH      1230            0.0000000000
     27295      1922  MEOH      HO2            16.9765326047       -4.0153090826      -33.2150720488  MEOH      1230            0.0000000000
     27296      1922  MEOH      H1A            19.0991022611       -4.7314678920      -32.6440712952  MEOH      1230            0.0000000000
     27297      1922  MEOH      H1B            19.7182693398       -3.6184016186      -33.9204075017  MEOH      1230            0.0000000000
     27298      1922  MEOH      H1C            18.6498080236       -5.0366269180      -34.3543548101  MEOH      1230            0.0000000000
     27299      1922  MEOH      LP1A           17.4134855699       -3.5858023739      -33.6002762546  MEOH      1230            0.0000000000
     27300      1922  MEOH      LP1B           17.7788022004       -3.1160000441      -33.3203144174  MEOH      1230            0.0000000000
     27301      1923  MEOH      C1             25.5026045402        0.7993974422      -25.1608474387  MEOH      1231            0.0000000000
     27302      1923  MEOH      DC1            25.4913835839        0.8105354154      -25.1831192571  MEOH      1231            0.0000000000
     27303      1923  MEOH      O1             24.3310831151        1.6058372511      -24.9957490491  MEOH      1231            0.0000000000
     27304      1923  MEOH      DO1            24.3276619971        1.6151337429      -25.0117875863  MEOH      1231            0.0000000000
     27305      1923  MEOH      HO1            23.5652071996        1.0418358297      -25.1861078688  MEOH      1231            0.0000000000
     27306      1923  MEOH      HO2            24.4147135267        1.9951576453      -24.1112516862  MEOH      1231            0.0000000000
     27307      1923  MEOH      H1A            26.4173733448        1.3975586799      -24.9615432282  MEOH      1231            0.0000000000
     27308      1923  MEOH      H1B            25.5426057283        0.4002796290      -26.1969101183  MEOH      1231            0.0000000000
     27309      1923  MEOH      H1C            25.4916222218       -0.0478146039      -24.4422153080  MEOH      1231            0.0000000000
     27310      1923  MEOH      LP1A           24.2214559726        1.5911350329      -24.6636862020  MEOH      1231            0.0000000000
     27311      1923  MEOH      LP1B           24.2513977713        1.7643763442      -25.2974369705  MEOH      1231            0.0000000000
     27312      1924  MEOH      C1            -26.5020333767       23.7772163662       -0.3690265674  MEOH      1232            0.0000000000
     27313      1924  MEOH      DC1           -26.5117560337       23.7597259393       -0.3563296143  MEOH      1232            0.0000000000
     27314      1924  MEOH      O1            -26.8307944888       22.5379131494       -1.0038690801  MEOH      1232            0.0000000000
     27315      1924  MEOH      DO1           -26.8237629924       22.5296127763       -1.0099364185  MEOH      1232            0.0000000000
     27316      1924  MEOH      HO1           -26.7110593348       21.8334818301       -0.3478660241  MEOH      1232            0.0000000000
     27317      1924  MEOH      HO2           -27.7195741219       22.6662912226       -1.3705976384  MEOH      1232            0.0000000000
     27318      1924  MEOH      H1A           -26.7064222938       24.6173797103       -1.0666451793  MEOH      1232            0.0000000000
     27319      1924  MEOH      H1B           -25.4232110364       23.8117838043       -0.1058375653  MEOH      1232            0.0000000000
     27320      1924  MEOH      H1C           -27.1164519426       23.9117406783        0.5467867516  MEOH      1232            0.0000000000
     27321      1924  MEOH      LP1A          -27.1725441454       22.4717220955       -0.9674559429  MEOH      1232            0.0000000000
     27322      1924  MEOH      LP1B          -26.5463760422       22.4023295939       -1.1562608342  MEOH      1232            0.0000000000
     27323      1925  MEOH      C1            -16.6979762770      -35.3921573139      -19.9419717996  MEOH      1233            0.0000000000
     27324      1925  MEOH      DC1           -16.6986125671      -35.3871837724      -19.9528580869  MEOH      1233            0.0000000000
     27325      1925  MEOH      O1            -15.2703480585      -35.3837984399      -19.8412455476  MEOH      1233            0.0000000000
     27326      1925  MEOH      DO1           -15.2715871888      -35.3877877137      -19.8615716737  MEOH      1233            0.0000000000
     27327      1925  MEOH      HO1           -15.0461191697      -35.2874207937      -18.9024523037  MEOH      1233            0.0000000000
     27328      1925  MEOH      HO2           -14.9632546798      -36.1658741597      -20.3259632252  MEOH      1233            0.0000000000
     27329      1925  MEOH      H1A           -17.0206661111      -35.4836299972      -21.0011342139  MEOH      1233            0.0000000000
     27330      1925  MEOH      H1B           -17.1069737768      -34.4405511798      -19.5401163397  MEOH      1233            0.0000000000
     27331      1925  MEOH      H1C           -17.1113429969      -36.2507357564      -19.3707520391  MEOH      1233            0.0000000000
     27332      1925  MEOH      LP1A          -15.1509964808      -35.7107979584      -19.8048241827  MEOH      1233            0.0000000000
     27333      1925  MEOH      LP1B          -15.1500727350      -35.0565750225      -19.8722081329  MEOH      1233            0.0000000000
     27334      1926  MEOH      C1            -13.0950157546      -34.4713003905       36.6585591042  MEOH      1234            0.0000000000
     27335      1926  MEOH      DC1           -13.0943195410      -34.4772546594       36.6517112766  MEOH      1234            0.0000000000
     27336      1926  MEOH      O1            -12.0977407543      -34.5362152320       35.6472628129  MEOH      1234            0.0000000000
     27337      1926  MEOH      DO1           -12.0964392589      -34.5394116832       35.6490963524  MEOH      1234            0.0000000000
     27338      1926  MEOH      HO1           -12.2945230128      -33.8249809857       35.0177212419  MEOH      1234            0.0000000000
     27339      1926  MEOH      HO2           -11.2436400521      -34.5639906790       36.1062187102  MEOH      1234            0.0000000000
     27340      1926  MEOH      H1A           -12.8542034224      -35.1901520385       37.4707060913  MEOH      1234            0.0000000000
     27341      1926  MEOH      H1B           -14.1070427527      -34.6873623169       36.2542824658  MEOH      1234            0.0000000000
     27342      1926  MEOH      H1C           -13.1059263148      -33.4295136870       37.0444119576  MEOH      1234            0.0000000000
     27343      1926  MEOH      LP1A          -11.8222200949      -34.3404159236       35.7380978122  MEOH      1234            0.0000000000
     27344      1926  MEOH      LP1B          -12.2004988959      -34.7518858194       35.3914758663  MEOH      1234            0.0000000000
     27345      1927  MEOH      C1             34.3996699725      -37.0726506040      -33.4220838730  MEOH      1235            0.0000000000
     27346      1927  MEOH      DC1            34.3981305763      -37.0566236806      -33.4226619258  MEOH      1235            0.0000000000
     27347      1927  MEOH      O1             34.4210021155      -35.6455648918      -33.4344917718  MEOH      1235            0.0000000000
     27348      1927  MEOH      DO1            34.4230855523      -35.6348451964      -33.4387809725  MEOH      1235            0.0000000000
     27349      1927  MEOH      HO1            34.0160396880      -35.3620600439      -32.5999077828  MEOH      1235            0.0000000000
     27350      1927  MEOH      HO2            35.3397737401      -35.4024455128      -33.6285321528  MEOH      1235            0.0000000000
     27351      1927  MEOH      H1A            34.8598311476      -37.4742710660      -34.3501322001  MEOH      1235            0.0000000000
     27352      1927  MEOH      H1B            33.3577029990      -37.4489622022      -33.3383258374  MEOH      1235            0.0000000000
     27353      1927  MEOH      H1C            34.9762294609      -37.4354709474      -32.5444384120  MEOH      1235            0.0000000000
     27354      1927  MEOH      LP1A           34.7207276485      -35.5291184895      -33.2962715117  MEOH      1235            0.0000000000
     27355      1927  MEOH      LP1B           34.1298947406      -35.5227979881      -33.5851064578  MEOH      1235            0.0000000000
     27356      1928  MEOH      C1             36.8027067784      -10.2293005133       12.2504992203  MEOH      1236            0.0000000000
     27357      1928  MEOH      DC1            36.7998145812      -10.2357707712       12.2507533743  MEOH      1236            0.0000000000
     27358      1928  MEOH      O1             35.4944618354      -10.8059320102       12.2347898698  MEOH      1236            0.0000000000
     27359      1928  MEOH      DO1            35.4919839026      -10.8075757540       12.2433626308  MEOH      1236            0.0000000000
     27360      1928  MEOH      HO1            34.8947101618      -10.1301092394       11.8819988376  MEOH      1236            0.0000000000
     27361      1928  MEOH      HO2            35.5842189766      -11.6482875346       11.7622638629  MEOH      1236            0.0000000000
     27362      1928  MEOH      H1A            37.5250784444      -10.9533650608       12.6843548497  MEOH      1236            0.0000000000
     27363      1928  MEOH      H1B            36.8102294882       -9.3050163802       12.8669108138  MEOH      1236            0.0000000000
     27364      1928  MEOH      H1C            37.1276284206       -9.9782541589       11.2181607802  MEOH      1236            0.0000000000
     27365      1928  MEOH      LP1A           35.4400632734      -10.9710555986       11.9310218712  MEOH      1236            0.0000000000
     27366      1928  MEOH      LP1B           35.3340421210      -10.7471152597       12.5402503502  MEOH      1236            0.0000000000
     27367      1929  MEOH      C1              8.7583780068       -5.3431640721      -22.7794016016  MEOH      1237            0.0000000000
     27368      1929  MEOH      DC1             8.7564885708       -5.3458756126      -22.7723879231  MEOH      1237            0.0000000000
     27369      1929  MEOH      O1              7.4209791686       -4.8694719904      -22.9450898890  MEOH      1237            0.0000000000
     27370      1929  MEOH      DO1             7.4191252698       -4.8846483537      -22.9452798506  MEOH      1237            0.0000000000
     27371      1929  MEOH      HO1             7.2465794545       -4.7788275192      -23.8949679441  MEOH      1237            0.0000000000
     27372      1929  MEOH      HO2             6.8586224251       -5.4038042674      -22.3627292512  MEOH      1237            0.0000000000
     27373      1929  MEOH      H1A             9.0585641108       -5.2305697244      -21.7156667578  MEOH      1237            0.0000000000
     27374      1929  MEOH      H1B             9.4607215402       -4.7572963935      -23.4101104289  MEOH      1237            0.0000000000
     27375      1929  MEOH      H1C             8.8228688154       -6.4177552658      -23.0540207962  MEOH      1237            0.0000000000
     27376      1929  MEOH      LP1A            7.1995394047       -5.1399277628      -22.9629254189  MEOH      1237            0.0000000000
     27377      1929  MEOH      LP1B            7.4168976977       -4.5194988467      -22.9436269134  MEOH      1237            0.0000000000
     27378      1930  MEOH      C1              0.7199009156        5.8957683362      -18.3680259485  MEOH      1238            0.0000000000
     27379      1930  MEOH      DC1             0.7343904211        5.9023032068      -18.3915219476  MEOH      1238            0.0000000000
     27380      1930  MEOH      O1              1.8338919995        6.1346506839      -19.2363583922  MEOH      1238            0.0000000000
     27381      1930  MEOH      DO1             1.8409541798        6.1603250385      -19.2636896291  MEOH      1238            0.0000000000
     27382      1930  MEOH      HO1             1.5512728011        5.8821435996      -20.1292562374  MEOH      1238            0.0000000000
     27383      1930  MEOH      HO2             2.2069955456        6.9969675378      -18.9953119496  MEOH      1238            0.0000000000
     27384      1930  MEOH      H1A             1.0509952501        5.8762919673      -17.3076872231  MEOH      1238            0.0000000000
     27385      1930  MEOH      H1B             0.2771728121        4.8985563761      -18.5775041917  MEOH      1238            0.0000000000
     27386      1930  MEOH      H1C            -0.0609074021        6.6756392292      -18.4963254488  MEOH      1238            0.0000000000
     27387      1930  MEOH      LP1A            1.8231742120        6.4629233317      -19.3572806721  MEOH      1238            0.0000000000
     27388      1930  MEOH      LP1B            2.0369696565        5.8499990062      -19.2516190472  MEOH      1238            0.0000000000
     27389      1931  MEOH      C1             11.4606500310        9.1924862249       25.9581376994  MEOH      1239            0.0000000000
     27390      1931  MEOH      DC1            11.4561105034        9.1978109519       25.9696835206  MEOH      1239            0.0000000000
     27391      1931  MEOH      O1             10.7122713115       10.2586100593       26.5506884859  MEOH      1239            0.0000000000
     27392      1931  MEOH      DO1            10.7171999058       10.2689698586       26.5553999480  MEOH      1239            0.0000000000
     27393      1931  MEOH      HO1            11.0751684465       10.4293206430       27.4339005589  MEOH      1239            0.0000000000
     27394      1931  MEOH      HO2            10.6383286537       10.9585778105       25.8832473789  MEOH      1239            0.0000000000
     27395      1931  MEOH      H1A            10.9212290125        8.8167886369       25.0624830289  MEOH      1239            0.0000000000
     27396      1931  MEOH      H1B            11.5820592973        8.3416933625       26.6622202914  MEOH      1239            0.0000000000
     27397      1931  MEOH      H1C            12.4700144259        9.5491611302       25.6610055229  MEOH      1239            0.0000000000
     27398      1931  MEOH      LP1A           10.8560242884       10.5666076277       26.4671865129  MEOH      1239            0.0000000000
     27399      1931  MEOH      LP1B           10.4368156209       10.1296654626       26.7238862155  MEOH      1239            0.0000000000
     27400      1932  MEOH      C1             13.9066152639      -27.1224649842       27.6341507023  MEOH      1240            0.0000000000
     27401      1932  MEOH      DC1            13.9135923538      -27.1247138993       27.6337321367  MEOH      1240            0.0000000000
     27402      1932  MEOH      O1             14.8202007669      -26.0195825431       27.6194759890  MEOH      1240            0.0000000000
     27403      1932  MEOH      DO1            14.8263451716      -26.0105245543       27.6052824995  MEOH      1240            0.0000000000
     27404      1932  MEOH      HO1            15.0966669269      -25.8966416254       28.5410789372  MEOH      1240            0.0000000000
     27405      1932  MEOH      HO2            15.4781386608      -26.2175079376       26.9347546836  MEOH      1240            0.0000000000
     27406      1932  MEOH      H1A            13.5358133359      -27.3499131664       26.6118521859  MEOH      1240            0.0000000000
     27407      1932  MEOH      H1B            13.0376927645      -26.8935291074       28.2875135837  MEOH      1240            0.0000000000
     27408      1932  MEOH      H1C            14.4164552114      -28.0424531683       27.9919299207  MEOH      1240            0.0000000000
     27409      1932  MEOH      LP1A           15.1461809289      -26.1348823341       27.5652275588  MEOH      1240            0.0000000000
     27410      1932  MEOH      LP1B           14.6455930452      -25.7189546909       27.6599115916  MEOH      1240            0.0000000000
     27411      1933  MEOH      C1              7.5148395807       17.1771163232      -36.2022319149  MEOH      1241            0.0000000000
     27412      1933  MEOH      DC1             7.5191312146       17.1911963896      -36.2072922100  MEOH      1241            0.0000000000
     27413      1933  MEOH      O1              8.5586690455       18.1332963645      -36.0182698783  MEOH      1241            0.0000000000
     27414      1933  MEOH      DO1             8.5535487669       18.1474460531      -36.0219822778  MEOH      1241            0.0000000000
     27415      1933  MEOH      HO1             9.0548045113       17.8615767912      -35.2302863295  MEOH      1241            0.0000000000
     27416      1933  MEOH      HO2             9.0190904844       18.1925395177      -36.8699754313  MEOH      1241            0.0000000000
     27417      1933  MEOH      H1A             6.7801535868       17.5003471165      -36.9703981378  MEOH      1241            0.0000000000
     27418      1933  MEOH      H1B             6.9507330668       17.0401313173      -35.2549516239  MEOH      1241            0.0000000000
     27419      1933  MEOH      H1C             7.9541500716       16.2153117532      -36.5432000389  MEOH      1241            0.0000000000
     27420      1933  MEOH      LP1A            8.8438562364       18.0348067820      -36.1956622917  MEOH      1241            0.0000000000
     27421      1933  MEOH      LP1B            8.4449671867       18.3978552691      -35.8193214596  MEOH      1241            0.0000000000
     27422      1934  MEOH      C1            -25.3480292546       32.5238748389       23.0775040226  MEOH      1242            0.0000000000
     27423      1934  MEOH      DC1           -25.3433960051       32.5297596878       23.0736626868  MEOH      1242            0.0000000000
     27424      1934  MEOH      O1            -25.5207901261       31.2593889847       22.4519802996  MEOH      1242            0.0000000000
     27425      1934  MEOH      DO1           -25.5120561192       31.2674564198       22.4390083582  MEOH      1242            0.0000000000
     27426      1934  MEOH      HO1           -24.9143548674       30.6427329151       22.8911517576  MEOH      1242            0.0000000000
     27427      1934  MEOH      HO2           -26.4724241128       31.0878913433       22.5286700271  MEOH      1242            0.0000000000
     27428      1934  MEOH      H1A           -26.1729525108       33.1911184745       22.7479459026  MEOH      1242            0.0000000000
     27429      1934  MEOH      H1B           -24.3748448221       32.9647063644       22.7727079808  MEOH      1242            0.0000000000
     27430      1934  MEOH      H1C           -25.4023248382       32.4551300465       24.1850450571  MEOH      1242            0.0000000000
     27431      1934  MEOH      LP1A          -25.7738735218       31.0795089230       22.6135103533  MEOH      1242            0.0000000000
     27432      1934  MEOH      LP1B          -25.3047317394       31.2307954017       22.1781168655  MEOH      1242            0.0000000000
     27433      1935  MEOH      C1            -28.0612530641        6.5227049915      -14.9387281878  MEOH      1243            0.0000000000
     27434      1935  MEOH      DC1           -28.0629512119        6.5153316592      -14.9462069804  MEOH      1243            0.0000000000
     27435      1935  MEOH      O1            -27.8675159094        7.7534531000      -14.2642069595  MEOH      1243            0.0000000000
     27436      1935  MEOH      DO1           -27.8605841458        7.7458158510      -14.2708230380  MEOH      1243            0.0000000000
     27437      1935  MEOH      HO1           -28.1639924066        8.4622848254      -14.8562874199  MEOH      1243            0.0000000000
     27438      1935  MEOH      HO2           -28.3064364752        7.6435752233      -13.4062002052  MEOH      1243            0.0000000000
     27439      1935  MEOH      H1A           -27.7189951632        5.6892059191      -14.2887590912  MEOH      1243            0.0000000000
     27440      1935  MEOH      H1B           -27.4702738339        6.5233403874      -15.8795066663  MEOH      1243            0.0000000000
     27441      1935  MEOH      H1C           -29.1393233067        6.3753103087      -15.1631393309  MEOH      1243            0.0000000000
     27442      1935  MEOH      LP1A          -28.1520158754        7.8332171255      -14.0765970729  MEOH      1243            0.0000000000
     27443      1935  MEOH      LP1B          -27.5460980587        7.8760300367      -14.3287473331  MEOH      1243            0.0000000000
     27444      1936  MEOH      C1             -9.8132188575      -28.7233781898       29.3953132216  MEOH      1244            0.0000000000
     27445      1936  MEOH      DC1            -9.8014127600      -28.7121530318       29.4018530452  MEOH      1244            0.0000000000
     27446      1936  MEOH      O1            -10.2318789391      -29.7200902055       28.4647468270  MEOH      1244            0.0000000000
     27447      1936  MEOH      DO1           -10.2193057680      -29.7189019729       28.4674941102  MEOH      1244            0.0000000000
     27448      1936  MEOH      HO1            -9.4583477865      -29.9845229214       27.9426118880  MEOH      1244            0.0000000000
     27449      1936  MEOH      HO2           -10.7157968604      -30.3793430187       28.9863876750  MEOH      1244            0.0000000000
     27450      1936  MEOH      H1A           -10.6874161869      -28.3686765690       29.9820727887  MEOH      1244            0.0000000000
     27451      1936  MEOH      H1B            -9.3597987405      -27.8640482616       28.8565337925  MEOH      1244            0.0000000000
     27452      1936  MEOH      H1C            -9.0686794562      -29.1662854210       30.0908815252  MEOH      1244            0.0000000000
     27453      1936  MEOH      LP1A          -10.2038433307      -30.0377836733       28.6089163978  MEOH      1244            0.0000000000
     27454      1936  MEOH      LP1B          -10.3408941359      -29.5689920191       28.1684614494  MEOH      1244            0.0000000000
     27455      1937  MEOH      C1             -1.6488918306       26.9990843686       -1.2688148607  MEOH      1245            0.0000000000
     27456      1937  MEOH      DC1            -1.6642501917       26.9867551145       -1.2543399862  MEOH      1245            0.0000000000
     27457      1937  MEOH      O1             -2.7404961425       26.0813268825       -1.1889675076  MEOH      1245            0.0000000000
     27458      1937  MEOH      DO1            -2.7503659607       26.0778523491       -1.1817153895  MEOH      1245            0.0000000000
     27459      1937  MEOH      HO1            -2.3752014816       25.1959084976       -1.0356896735  MEOH      1245            0.0000000000
     27460      1937  MEOH      HO2            -3.4019828360       26.4770818009       -0.6001437650  MEOH      1245            0.0000000000
     27461      1937  MEOH      H1A            -2.0088114076       27.9785180332       -1.6502445335  MEOH      1245            0.0000000000
     27462      1937  MEOH      H1B            -0.8754141882       26.6144133444       -1.9674431881  MEOH      1245            0.0000000000
     27463      1937  MEOH      H1C            -1.1919380556       27.1502064769       -0.2674775764  MEOH      1245            0.0000000000
     27464      1937  MEOH      LP1A           -2.8531224805       26.0577366311       -0.8584243061  MEOH      1245            0.0000000000
     27465      1937  MEOH      LP1B           -2.8182156406       25.9597178327       -1.5078262830  MEOH      1245            0.0000000000
     27466      1938  MEOH      C1            -31.2661469180       -8.7381919508      -27.6819764903  MEOH      1246            0.0000000000
     27467      1938  MEOH      DC1           -31.2891806877       -8.7453790267      -27.6828452618  MEOH      1246            0.0000000000
     27468      1938  MEOH      O1            -29.8866010043       -9.0305279884      -27.8867290680  MEOH      1246            0.0000000000
     27469      1938  MEOH      DO1           -29.9065507794       -9.0354779121      -27.8743668752  MEOH      1246            0.0000000000
     27470      1938  MEOH      HO1           -29.5736368232       -8.5716524061      -28.6819564702  MEOH      1246            0.0000000000
     27471      1938  MEOH      HO2           -29.4550724136       -8.8898004571      -27.0294783241  MEOH      1246            0.0000000000
     27472      1938  MEOH      H1A           -31.6588173294       -9.3825511554      -26.8665427631  MEOH      1246            0.0000000000
     27473      1938  MEOH      H1B           -31.8343330699       -8.9415022627      -28.6147950232  MEOH      1246            0.0000000000
     27474      1938  MEOH      H1C           -31.3916576031       -7.6759068046      -27.3817793276  MEOH      1246            0.0000000000
     27475      1938  MEOH      LP1A          -29.6883460437       -8.7977430758      -27.7164171334  MEOH      1246            0.0000000000
     27476      1938  MEOH      LP1B          -29.8530751014       -9.3190211469      -28.0820434589  MEOH      1246            0.0000000000
     27477      1939  MEOH      C1              4.8566601597       25.5401232307       33.5916956331  MEOH      1247            0.0000000000
     27478      1939  MEOH      DC1             4.8500713985       25.5308071974       33.5875875569  MEOH      1247            0.0000000000
     27479      1939  MEOH      O1              4.9180136844       26.7996399094       34.2634661447  MEOH      1247            0.0000000000
     27480      1939  MEOH      DO1             4.9144017732       26.7911394407       34.2673252828  MEOH      1247            0.0000000000
     27481      1939  MEOH      HO1             4.2477563058       27.3790991075       33.8686470923  MEOH      1247            0.0000000000
     27482      1939  MEOH      HO2             4.9482441349       26.6089970273       35.2140666985  MEOH      1247            0.0000000000
     27483      1939  MEOH      H1A             5.7747225008       24.9579197874       33.8208717463  MEOH      1247            0.0000000000
     27484      1939  MEOH      H1B             4.8043690086       25.6847858530       32.4913959636  MEOH      1247            0.0000000000
     27485      1939  MEOH      H1C             3.9651812764       24.9727627457       33.9347531802  MEOH      1247            0.0000000000
     27486      1939  MEOH      LP1A            4.7064785525       26.7970232391       34.5422959154  MEOH      1247            0.0000000000
     27487      1939  MEOH      LP1B            5.1483186561       27.0093527433       34.1038411238  MEOH      1247            0.0000000000
     27488      1940  MEOH      C1              2.5191507513        3.1464030991      -17.7371609928  MEOH      1248            0.0000000000
     27489      1940  MEOH      DC1             2.5138767769        3.1425072667      -17.7447674115  MEOH      1248            0.0000000000
     27490      1940  MEOH      O1              3.4154233865        3.3158779766      -16.6444686772  MEOH      1248            0.0000000000
     27491      1940  MEOH      DO1             3.4263767334        3.3091310917      -16.6649438455  MEOH      1248            0.0000000000
     27492      1940  MEOH      HO1             3.3335871941        4.2305937986      -16.3322222961  MEOH      1248            0.0000000000
     27493      1940  MEOH      HO2             3.2076598333        2.5903445449      -16.0350956008  MEOH      1248            0.0000000000
     27494      1940  MEOH      H1A             2.5686344534        2.0996611487      -18.1062187829  MEOH      1248            0.0000000000
     27495      1940  MEOH      H1B             2.8052053977        3.8376924648      -18.5585091246  MEOH      1248            0.0000000000
     27496      1940  MEOH      H1C             1.4773216161        3.3525380063      -17.4109379808  MEOH      1248            0.0000000000
     27497      1940  MEOH      LP1A            3.2556380277        3.2322715510      -16.3445043382  MEOH      1248            0.0000000000
     27498      1940  MEOH      LP1B            3.7293062235        3.4170579430      -16.7616871871  MEOH      1248            0.0000000000
     27499      1941  MEOH      C1            -31.8877441499      -32.9352006349       -3.8031274506  MEOH      1249            0.0000000000
     27500      1941  MEOH      DC1           -31.8618299400      -32.9363395794       -3.8161519416  MEOH      1249            0.0000000000
     27501      1941  MEOH      O1            -32.8310533426      -32.8048538984       -2.7378740950  MEOH      1249            0.0000000000
     27502      1941  MEOH      DO1           -32.8118958817      -32.8160761453       -2.7491184567  MEOH      1249            0.0000000000
     27503      1941  MEOH      HO1           -32.6481981845      -31.9873158662       -2.2489001101  MEOH      1249            0.0000000000
     27504      1941  MEOH      HO2           -33.7023426933      -32.9134482637       -3.1501387324  MEOH      1249            0.0000000000
     27505      1941  MEOH      H1A           -32.0653415825      -33.8860048576       -4.3497090840  MEOH      1249            0.0000000000
     27506      1941  MEOH      H1B           -30.8571473554      -32.9431813481       -3.3882448688  MEOH      1249            0.0000000000
     27507      1941  MEOH      H1C           -32.0162370199      -32.0979371299       -4.5220157632  MEOH      1249            0.0000000000
     27508      1941  MEOH      LP1A          -33.1152870180      -32.6340872422       -2.8499007295  MEOH      1249            0.0000000000
     27509      1941  MEOH      LP1B          -32.7098037015      -32.9636590801       -2.4505077107  MEOH      1249            0.0000000000
     27510      1942  MEOH      C1            -29.2777726582      -23.7637585882       14.5485033234  MEOH      1250            0.0000000000
     27511      1942  MEOH      DC1           -29.2811763885      -23.7654660171       14.5486857085  MEOH      1250            0.0000000000
     27512      1942  MEOH      O1            -30.1940792775      -23.7744990500       13.4509400016  MEOH      1250            0.0000000000
     27513      1942  MEOH      DO1           -30.1974020335      -23.7744613260       13.4510006608  MEOH      1250            0.0000000000
     27514      1942  MEOH      HO1           -30.6507990249      -24.6302297487       13.4566007126  MEOH      1250            0.0000000000
     27515      1942  MEOH      HO2           -30.6974834451      -22.9480812983       13.5181556609  MEOH      1250            0.0000000000
     27516      1942  MEOH      H1A           -28.6380939583      -22.8567069865       14.4996202699  MEOH      1250            0.0000000000
     27517      1942  MEOH      H1B           -28.6272297484      -24.6633249980       14.5049694642  MEOH      1250            0.0000000000
     27518      1942  MEOH      H1C           -29.8320730860      -23.7682910919       15.5113384564  MEOH      1250            0.0000000000
     27519      1942  MEOH      LP1A          -30.5028911199      -23.6440517118       13.5515319393  MEOH      1250            0.0000000000
     27520      1942  MEOH      LP1B          -30.0353704115      -23.8961420251       13.1636866597  MEOH      1250            0.0000000000
     27521      1943  MEOH      C1             -2.6624560398       34.3386382624      -21.9364986598  MEOH      1251            0.0000000000
     27522      1943  MEOH      DC1            -2.6545786930       34.3376438069      -21.9395139775  MEOH      1251            0.0000000000
     27523      1943  MEOH      O1             -2.9798907899       35.5169141111      -21.1998360233  MEOH      1251            0.0000000000
     27524      1943  MEOH      DO1            -2.9716847183       35.5155567498      -21.2013415995  MEOH      1251            0.0000000000
     27525      1943  MEOH      HO1            -3.0483561120       36.2530929932      -21.8277318378  MEOH      1251            0.0000000000
     27526      1943  MEOH      HO2            -3.7550163225       35.2844017892      -20.6650291153  MEOH      1251            0.0000000000
     27527      1943  MEOH      H1A            -2.4807357055       33.4965588323      -21.2349283104  MEOH      1251            0.0000000000
     27528      1943  MEOH      H1B            -1.7494922335       34.5124372656      -22.5452777621  MEOH      1251            0.0000000000
     27529      1943  MEOH      H1C            -3.5129128652       34.0670220185      -22.5977616968  MEOH      1251            0.0000000000
     27530      1943  MEOH      LP1A           -3.3271216582       35.5503795779      -21.1713617082  MEOH      1251            0.0000000000
     27531      1943  MEOH      LP1B           -2.6859544921       35.6752734338      -21.0948418437  MEOH      1251            0.0000000000
     27532      1944  MEOH      C1            -33.4265927418       -0.0171295795      -21.9749737835  MEOH      1252            0.0000000000
     27533      1944  MEOH      DC1           -33.4333584069       -0.0011801743      -21.9709003621  MEOH      1252            0.0000000000
     27534      1944  MEOH      O1            -33.4980206268       -1.3484965763      -21.4658750387  MEOH      1252            0.0000000000
     27535      1944  MEOH      DO1           -33.5024579788       -1.3414950022      -21.4725809549  MEOH      1252            0.0000000000
     27536      1944  MEOH      HO1           -33.0788657753       -1.3611457866      -20.5912041246  MEOH      1252            0.0000000000
     27537      1944  MEOH      HO2           -34.4171342031       -1.6358826374      -21.5822343360  MEOH      1252            0.0000000000
     27538      1944  MEOH      H1A           -33.7463412202       -0.0186071356      -23.0389661377  MEOH      1252            0.0000000000
     27539      1944  MEOH      H1B           -32.3781545551        0.3464008660      -21.9207152858  MEOH      1252            0.0000000000
     27540      1944  MEOH      H1C           -34.1013270906        0.6505034079      -21.3976344097  MEOH      1252            0.0000000000
     27541      1944  MEOH      LP1A          -33.7962796135       -1.3928710000      -21.2881885526  MEOH      1252            0.0000000000
     27542      1944  MEOH      LP1B          -33.2171544612       -1.5308262301      -21.5677086990  MEOH      1252            0.0000000000
     27543      1945  MEOH      C1             -7.4490883536       -4.5591671020        8.5954898735  MEOH      1253            0.0000000000
     27544      1945  MEOH      DC1            -7.4097596273       -4.5577382949        8.5866503103  MEOH      1253            0.0000000000
     27545      1945  MEOH      O1             -8.6945488867       -4.9053667183        7.9862445623  MEOH      1253            0.0000000000
     27546      1945  MEOH      DO1            -8.6559759457       -4.9225419958        7.9590029476  MEOH      1253            0.0000000000
     27547      1945  MEOH      HO1            -9.3217772069       -5.0283898695        8.7158677112  MEOH      1253            0.0000000000
     27548      1945  MEOH      HO2            -8.8863768736       -4.1644114146        7.3903525742  MEOH      1253            0.0000000000
     27549      1945  MEOH      H1A            -6.8282667045       -4.0182920192        7.8495973700  MEOH      1253            0.0000000000
     27550      1945  MEOH      H1B            -6.9253520846       -5.4702923443        8.9558676113  MEOH      1253            0.0000000000
     27551      1945  MEOH      H1C            -7.6198525644       -3.8714748217        9.4512000533  MEOH      1253            0.0000000000
     27552      1945  MEOH      LP1A           -8.8772265135       -4.6156307458        7.9142587936  MEOH      1253            0.0000000000
     27553      1945  MEOH      LP1B           -8.7156550548       -5.2523798520        7.9457919393  MEOH      1253            0.0000000000
     27554      1946  MEOH      C1            -13.8491263652       11.0883688855      -11.6909776235  MEOH      1254            0.0000000000
     27555      1946  MEOH      DC1           -13.8677009358       11.0840088458      -11.6871223452  MEOH      1254            0.0000000000
     27556      1946  MEOH      O1            -12.7166950512       11.9529972545      -11.7294621873  MEOH      1254            0.0000000000
     27557      1946  MEOH      DO1           -12.7307251275       11.9533053914      -11.7338670587  MEOH      1254            0.0000000000
     27558      1946  MEOH      HO1           -12.9042425675       12.7135048428      -11.1573134852  MEOH      1254            0.0000000000
     27559      1946  MEOH      HO2           -11.9558885186       11.3905629421      -11.5155905791  MEOH      1254            0.0000000000
     27560      1946  MEOH      H1A           -13.6482398964       10.1919846070      -12.3158462918  MEOH      1254            0.0000000000
     27561      1946  MEOH      H1B           -14.7398718013       11.6174884842      -12.0921334763  MEOH      1254            0.0000000000
     27562      1946  MEOH      H1C           -14.0291432918       10.7652641783      -10.6433525686  MEOH      1254            0.0000000000
     27563      1946  MEOH      LP1A          -12.4880432457       11.8619316908      -11.4806140108  MEOH      1254            0.0000000000
     27564      1946  MEOH      LP1B          -12.7498625475       12.1820835761      -11.9919871851  MEOH      1254            0.0000000000
     27565      1947  MEOH      C1             24.9444236938      -23.9692388728       24.5217301968  MEOH      1255            0.0000000000
     27566      1947  MEOH      DC1            24.9536910819      -23.9722989137       24.5317102441  MEOH      1255            0.0000000000
     27567      1947  MEOH      O1             24.1027643867      -22.9707703743       23.9589200059  MEOH      1255            0.0000000000
     27568      1947  MEOH      DO1            24.1033669058      -22.9616010620       23.9650595434  MEOH      1255            0.0000000000
     27569      1947  MEOH      HO1            24.3192160615      -22.9534926607       23.0135364048  MEOH      1255            0.0000000000
     27570      1947  MEOH      HO2            23.2085870972      -23.2049242722       24.2530610066  MEOH      1255            0.0000000000
     27571      1947  MEOH      H1A            24.7418777485      -24.0633893377       25.6100462498  MEOH      1255            0.0000000000
     27572      1947  MEOH      H1B            26.0148371657      -23.7095690597       24.3764456911  MEOH      1255            0.0000000000
     27573      1947  MEOH      H1C            24.7400592749      -24.9440120512       24.0294158308  MEOH      1255            0.0000000000
     27574      1947  MEOH      LP1A           23.7985882193      -23.1126365749       23.8596686062  MEOH      1255            0.0000000000
     27575      1947  MEOH      LP1B           24.2607013187      -22.6587840057       23.9737669351  MEOH      1255            0.0000000000
     27576      1948  MEOH      C1             34.6068104229        8.7323734259        5.4542714461  MEOH      1256            0.0000000000
     27577      1948  MEOH      DC1            34.6053771952        8.7292483683        5.4481424126  MEOH      1256            0.0000000000
     27578      1948  MEOH      O1             35.7808039616        8.2931838087        4.7642004489  MEOH      1256            0.0000000000
     27579      1948  MEOH      DO1            35.7795512197        8.2823518119        4.7556040883  MEOH      1256            0.0000000000
     27580      1948  MEOH      HO1            35.4901090903        7.7671588873        4.0028238839  MEOH      1256            0.0000000000
     27581      1948  MEOH      HO2            36.3265422392        9.0853273419        4.6393871612  MEOH      1256            0.0000000000
     27582      1948  MEOH      H1A            34.9072497624        9.2476634962        6.3915725435  MEOH      1256            0.0000000000
     27583      1948  MEOH      H1B            33.9744291882        7.8579024026        5.7183081924  MEOH      1256            0.0000000000
     27584      1948  MEOH      H1C            34.0248436792        9.4372231015        4.8227473806  MEOH      1256            0.0000000000
     27585      1948  MEOH      LP1A           35.8751979028        8.5309007708        4.5252853389  MEOH      1256            0.0000000000
     27586      1948  MEOH      LP1B           35.8894034697        7.9874002198        4.8953589163  MEOH      1256            0.0000000000
     27587      1949  MEOH      C1              9.1019281076       36.0882339404      -20.5973879832  MEOH      1257            0.0000000000
     27588      1949  MEOH      DC1             9.0985974032       36.0953769650      -20.5937592982  MEOH      1257            0.0000000000
     27589      1949  MEOH      O1              8.7977082100       34.7770092157      -20.1631671462  MEOH      1257            0.0000000000
     27590      1949  MEOH      DO1             8.7941123905       34.7876459025      -20.1640589194  MEOH      1257            0.0000000000
     27591      1949  MEOH      HO1             9.0313399432       34.6932971347      -19.2254526366  MEOH      1257            0.0000000000
     27592      1949  MEOH      HO2             7.8952840649       34.6046864063      -20.4743511943  MEOH      1257            0.0000000000
     27593      1949  MEOH      H1A             8.9599775689       36.0971045966      -21.6992465755  MEOH      1257            0.0000000000
     27594      1949  MEOH      H1B            10.1604834686       36.3384834904      -20.3712094898  MEOH      1257            0.0000000000
     27595      1949  MEOH      H1C             8.4155764793       36.8285354215      -20.1334955824  MEOH      1257            0.0000000000
     27596      1949  MEOH      LP1A            8.4676537053       34.7627408746      -20.0475797836  MEOH      1257            0.0000000000
     27597      1949  MEOH      LP1B            9.0724938828       34.5667114309      -20.2157758498  MEOH      1257            0.0000000000
     27598      1950  MEOH      C1             28.3837015111       36.2827804758      -22.3861801755  MEOH      1258            0.0000000000
     27599      1950  MEOH      DC1            28.3818008061       36.2958642630      -22.3623945647  MEOH      1258            0.0000000000
     27600      1950  MEOH      O1             27.8904125151       36.5105193957      -21.0637649608  MEOH      1258            0.0000000000
     27601      1950  MEOH      DO1            27.8846409041       36.5216857504      -21.0375523976  MEOH      1258            0.0000000000
     27602      1950  MEOH      HO1            27.0031309024       36.1188657861      -21.0792178131  MEOH      1258            0.0000000000
     27603      1950  MEOH      HO2            28.5764434596       36.1751246345      -20.4656245949  MEOH      1258            0.0000000000
     27604      1950  MEOH      H1A            29.4642420705       36.5237186023      -22.4794642526  MEOH      1258            0.0000000000
     27605      1950  MEOH      H1B            27.8710916276       36.9365723689      -23.1238171240  MEOH      1258            0.0000000000
     27606      1950  MEOH      H1C            28.2831045485       35.2064678784      -22.6426025713  MEOH      1258            0.0000000000
     27607      1950  MEOH      LP1A           27.9795737218       36.2439760392      -20.8551866343  MEOH      1258            0.0000000000
     27608      1950  MEOH      LP1B           27.7284884308       36.8204157712      -21.0481179997  MEOH      1258            0.0000000000
     27609      1951  MEOH      C1             20.5607711429       35.7137966018      -12.4322134590  MEOH      1259            0.0000000000
     27610      1951  MEOH      DC1            20.5573342798       35.7169464439      -12.4373357782  MEOH      1259            0.0000000000
     27611      1951  MEOH      O1             19.8391384357       36.5916646639      -11.5650210900  MEOH      1259            0.0000000000
     27612      1951  MEOH      DO1            19.8307643474       36.5822155397      -11.5695017938  MEOH      1259            0.0000000000
     27613      1951  MEOH      HO1            19.9658311005       36.2806681775      -10.6550045220  MEOH      1259            0.0000000000
     27614      1951  MEOH      HO2            20.1276047628       37.4870275642      -11.8016905982  MEOH      1259            0.0000000000
     27615      1951  MEOH      H1A            20.3885109090       36.0135107448      -13.4880632801  MEOH      1259            0.0000000000
     27616      1951  MEOH      H1B            20.2169073175       34.6668753027      -12.2906703095  MEOH      1259            0.0000000000
     27617      1951  MEOH      H1C            21.6496769187       35.7730754680      -12.2198665061  MEOH      1259            0.0000000000
     27618      1951  MEOH      LP1A           20.0432024553       36.8592217115      -11.4687345270  MEOH      1259            0.0000000000
     27619      1951  MEOH      LP1B           19.5107735532       36.4772702909      -11.5251408774  MEOH      1259            0.0000000000
     27620      1952  MEOH      C1             24.9964929761       16.0774599434        8.7244209588  MEOH      1260            0.0000000000
     27621      1952  MEOH      DC1            24.9856416258       16.0767474100        8.7261400137  MEOH      1260            0.0000000000
     27622      1952  MEOH      O1             25.1953744732       16.7100365506        9.9914085571  MEOH      1260            0.0000000000
     27623      1952  MEOH      DO1            25.1842566676       16.7119331093        9.9947224196  MEOH      1260            0.0000000000
     27624      1952  MEOH      HO1            26.1539636976       16.7387128373       10.1369570751  MEOH      1260            0.0000000000
     27625      1952  MEOH      HO2            24.6712715098       17.5259820601        9.9702187170  MEOH      1260            0.0000000000
     27626      1952  MEOH      H1A            23.9171664206       15.8528023938        8.5869285147  MEOH      1260            0.0000000000
     27627      1952  MEOH      H1B            25.5640585449       15.1232948280        8.6824774402  MEOH      1260            0.0000000000
     27628      1952  MEOH      H1C            25.3523229226       16.7344498616        7.9021860185  MEOH      1260            0.0000000000
     27629      1952  MEOH      LP1A           25.2201226082       17.0566458123        9.9495809403  MEOH      1260            0.0000000000
     27630      1952  MEOH      LP1B           25.1925648571       16.4704802740       10.2465651687  MEOH      1260            0.0000000000
     27631      1953  MEOH      C1            -24.3322062854       21.2829865003      -28.8418283178  MEOH      1261            0.0000000000
     27632      1953  MEOH      DC1           -24.3307764486       21.2832056268      -28.8462128323  MEOH      1261            0.0000000000
     27633      1953  MEOH      O1            -23.8887183214       19.9276159254      -28.7975546045  MEOH      1261            0.0000000000
     27634      1953  MEOH      DO1           -23.8898185718       19.9262074609      -28.8081554822  MEOH      1261            0.0000000000
     27635      1953  MEOH      HO1           -23.3806204312       19.8295674637      -27.9771138491  MEOH      1261            0.0000000000
     27636      1953  MEOH      HO2           -24.6813474797       19.3885639873      -28.9460875171  MEOH      1261            0.0000000000
     27637      1953  MEOH      H1A           -24.8385661186       21.4762883811      -29.8116505191  MEOH      1261            0.0000000000
     27638      1953  MEOH      H1B           -23.4676269413       21.9708592864      -28.7249754610  MEOH      1261            0.0000000000
     27639      1953  MEOH      H1C           -25.0541042803       21.4864822022      -28.0222102451  MEOH      1261            0.0000000000
     27640      1953  MEOH      LP1A          -24.1286999585       19.7282610140      -28.6389152866  MEOH      1261            0.0000000000
     27641      1953  MEOH      LP1B          -23.5795310660       19.8975046131      -28.9587890610  MEOH      1261            0.0000000000
     27642      1954  MEOH      C1            -32.8867652096        4.8487803130      -25.2970451517  MEOH      1262            0.0000000000
     27643      1954  MEOH      DC1           -32.8927106522        4.8614680237      -25.2988748483  MEOH      1262            0.0000000000
     27644      1954  MEOH      O1            -33.5148496234        6.0878653794      -25.6432562972  MEOH      1262            0.0000000000
     27645      1954  MEOH      DO1           -33.5186812097        6.0968105467      -25.6373024356  MEOH      1262            0.0000000000
     27646      1954  MEOH      HO1           -33.7521700324        6.5517464433      -24.8250916539  MEOH      1262            0.0000000000
     27647      1954  MEOH      HO2           -32.9560658147        6.5001558098      -26.3205134538  MEOH      1262            0.0000000000
     27648      1954  MEOH      H1A           -32.7862841980        4.2197665906      -26.2073013267  MEOH      1262            0.0000000000
     27649      1954  MEOH      H1B           -33.5115190418        4.2881782232      -24.5692203471  MEOH      1262            0.0000000000
     27650      1954  MEOH      H1C           -31.8834909909        5.0224680094      -24.8525292032  MEOH      1262            0.0000000000
     27651      1954  MEOH      LP1A          -33.2734919970        6.3390648772      -25.6770987043  MEOH      1262            0.0000000000
     27652      1954  MEOH      LP1B          -33.8599630777        6.0414091226      -25.6784489077  MEOH      1262            0.0000000000
     27653      1955  MEOH      C1             -8.5066191434       12.8353968002       -7.2537526681  MEOH      1263            0.0000000000
     27654      1955  MEOH      DC1            -8.4932505853       12.8519679706       -7.2600222383  MEOH      1263            0.0000000000
     27655      1955  MEOH      O1             -7.2543124572       13.4567993098       -7.5249101924  MEOH      1263            0.0000000000
     27656      1955  MEOH      DO1            -7.2486893012       13.4713990843       -7.5262837730  MEOH      1263            0.0000000000
     27657      1955  MEOH      HO1            -7.1250856830       14.1154186099       -6.8246095002  MEOH      1263            0.0000000000
     27658      1955  MEOH      HO2            -6.6266039553       12.7234096524       -7.6198925432  MEOH      1263            0.0000000000
     27659      1955  MEOH      H1A            -8.7311159024       12.0777294345       -8.0346895221  MEOH      1263            0.0000000000
     27660      1955  MEOH      H1B            -9.3168768687       13.5954248570       -7.2410730789  MEOH      1263            0.0000000000
     27661      1955  MEOH      H1C            -8.4799038268       12.3345232205       -6.2624237878  MEOH      1263            0.0000000000
     27662      1955  MEOH      LP1A           -6.9963738754       13.2798074552       -7.3679338522  MEOH      1263            0.0000000000
     27663      1955  MEOH      LP1B           -7.3004044632       13.7315906605       -7.7367243576  MEOH      1263            0.0000000000
     27664      1956  MEOH      C1            -24.7347994362       -0.2166002048       24.5310442281  MEOH      1264            0.0000000000
     27665      1956  MEOH      DC1           -24.7420847819       -0.2292904917       24.5443822836  MEOH      1264            0.0000000000
     27666      1956  MEOH      O1            -24.7083296239       -0.5503709121       25.9208554420  MEOH      1264            0.0000000000
     27667      1956  MEOH      DO1           -24.7121046475       -0.5603995598       25.9403367758  MEOH      1264            0.0000000000
     27668      1956  MEOH      HO1           -25.3237219391        0.0636751051       26.3511341739  MEOH      1264            0.0000000000
     27669      1956  MEOH      HO2           -24.8231401925       -1.5122315668       25.9712797887  MEOH      1264            0.0000000000
     27670      1956  MEOH      H1A           -23.9271040839       -0.7615383435       23.9971981419  MEOH      1264            0.0000000000
     27671      1956  MEOH      H1B           -24.5742311081        0.8741831096       24.3941845444  MEOH      1264            0.0000000000
     27672      1956  MEOH      H1C           -25.7162490451       -0.4914675814       24.0888614695  MEOH      1264            0.0000000000
     27673      1956  MEOH      LP1A          -24.9479778922       -0.7960314685       25.9895547760  MEOH      1264            0.0000000000
     27674      1956  MEOH      LP1B          -24.4566205324       -0.3689157571       26.0827707285  MEOH      1264            0.0000000000
     27675      1957  MEOH      C1             11.5841559561      -10.7271962623       37.1246961287  MEOH      1265            0.0000000000
     27676      1957  MEOH      DC1            11.5898019958      -10.7328328445       37.1205948404  MEOH      1265            0.0000000000
     27677      1957  MEOH      O1             11.4075555569      -10.5664382814       35.7211738757  MEOH      1265            0.0000000000
     27678      1957  MEOH      DO1            11.4164666201      -10.5654710158       35.7174955950  MEOH      1265            0.0000000000
     27679      1957  MEOH      HO1            12.1389691424      -10.0327500873       35.3731637055  MEOH      1265            0.0000000000
     27680      1957  MEOH      HO2            11.2312122043      -11.4518500465       35.3664218076  MEOH      1265            0.0000000000
     27681      1957  MEOH      H1A            10.6978058816      -11.2487147397       37.5450805041  MEOH      1265            0.0000000000
     27682      1957  MEOH      H1B            11.6824731937       -9.7306511713       37.6058952605  MEOH      1265            0.0000000000
     27683      1957  MEOH      H1C            12.4926616516      -11.3339247952       37.3267329796  MEOH      1265            0.0000000000
     27684      1957  MEOH      LP1A           11.5622362730      -10.8297194860       35.5501274394  MEOH      1265            0.0000000000
     27685      1957  MEOH      LP1B           11.2135480501      -10.2823542563       35.6566963293  MEOH      1265            0.0000000000
     27686      1958  MEOH      C1            -32.7137543207      -35.8542220188       34.1643599281  MEOH      1266            0.0000000000
     27687      1958  MEOH      DC1           -32.7214988455      -35.8537471148       34.1793007303  MEOH      1266            0.0000000000
     27688      1958  MEOH      O1            -34.1409974332      -35.9327391610       34.1053940566  MEOH      1266            0.0000000000
     27689      1958  MEOH      DO1           -34.1442682162      -35.9334312083       34.1158004014  MEOH      1266            0.0000000000
     27690      1958  MEOH      HO1           -34.3830312964      -36.3788226248       33.2787568007  MEOH      1266            0.0000000000
     27691      1958  MEOH      HO2           -34.4425824066      -36.2640510753       34.9657305718  MEOH      1266            0.0000000000
     27692      1958  MEOH      H1A           -32.3905359351      -35.2342920845       35.0278052086  MEOH      1266            0.0000000000
     27693      1958  MEOH      H1B           -32.3222482258      -35.3736058924       33.2423772186  MEOH      1266            0.0000000000
     27694      1958  MEOH      H1C           -32.2864408285      -36.8730394016       34.2815577182  MEOH      1266            0.0000000000
     27695      1958  MEOH      LP1A          -34.2511595408      -36.2270748828       34.2594420781  MEOH      1266            0.0000000000
     27696      1958  MEOH      LP1B          -34.2703976261      -35.6461966187       33.9516118682  MEOH      1266            0.0000000000
     27697      1959  MEOH      C1            -13.4821508090       14.9208727551      -12.8282007629  MEOH      1267            0.0000000000
     27698      1959  MEOH      DC1           -13.4910248221       14.9328116456      -12.8165058480  MEOH      1267            0.0000000000
     27699      1959  MEOH      O1            -13.2739424729       16.3103672163      -13.1115672291  MEOH      1267            0.0000000000
     27700      1959  MEOH      DO1           -13.2803090409       16.3240380992      -13.1229831638  MEOH      1267            0.0000000000
     27701      1959  MEOH      HO1           -14.0608146313       16.7790565191      -12.7920949397  MEOH      1267            0.0000000000
     27702      1959  MEOH      HO2           -12.4046956640       16.5183499477      -12.7346678135  MEOH      1267            0.0000000000
     27703      1959  MEOH      H1A           -12.5925064933       14.3266252309      -13.1277401950  MEOH      1267            0.0000000000
     27704      1959  MEOH      H1B           -14.3526979840       14.5295029653      -13.3967940314  MEOH      1267            0.0000000000
     27705      1959  MEOH      H1C           -13.6579270034       14.7767941253      -11.7406967039  MEOH      1267            0.0000000000
     27706      1959  MEOH      LP1A          -13.1091153956       16.4637922111      -12.8436254340  MEOH      1267            0.0000000000
     27707      1959  MEOH      LP1B          -13.3937773418       16.3865666876      -13.4314629070  MEOH      1267            0.0000000000
     27708      1960  MEOH      C1            -35.5133092413      -30.4420742751      -25.0372864164  MEOH      1268            0.0000000000
     27709      1960  MEOH      DC1           -35.5267075812      -30.4465954397      -25.0426267392  MEOH      1268            0.0000000000
     27710      1960  MEOH      O1            -36.2981099826      -30.9699295147      -23.9696405317  MEOH      1268            0.0000000000
     27711      1960  MEOH      DO1           -36.3116896568      -30.9822310788      -23.9770251413  MEOH      1268            0.0000000000
     27712      1960  MEOH      HO1           -35.6968643639      -31.0613743552      -23.2139676215  MEOH      1268            0.0000000000
     27713      1960  MEOH      HO2           -37.0576341845      -30.3723966437      -23.8861093669  MEOH      1268            0.0000000000
     27714      1960  MEOH      H1A           -36.1648315976      -30.2524704735      -25.9169966069  MEOH      1268            0.0000000000
     27715      1960  MEOH      H1B           -34.7164809480      -31.1645309910      -25.3155703824  MEOH      1268            0.0000000000
     27716      1960  MEOH      H1C           -35.0468461055      -29.4837112409      -24.7238004715  MEOH      1268            0.0000000000
     27717      1960  MEOH      LP1A          -36.4431071676      -30.7087983264      -23.7871951458  MEOH      1268            0.0000000000
     27718      1960  MEOH      LP1B          -36.2940705277      -31.3197613615      -23.9797083908  MEOH      1268            0.0000000000
     27719      1961  MEOH      C1              5.9415363752       36.1049641517       -6.3416577309  MEOH      1269            0.0000000000
     27720      1961  MEOH      DC1             5.9503940496       36.1146270484       -6.3647204456  MEOH      1269            0.0000000000
     27721      1961  MEOH      O1              6.8400021994       35.7524403661       -7.3986253181  MEOH      1269            0.0000000000
     27722      1961  MEOH      DO1             6.8486813573       35.7646158790       -7.4155818673  MEOH      1269            0.0000000000
     27723      1961  MEOH      HO1             7.2433473073       34.9149043969       -7.1215942292  MEOH      1269            0.0000000000
     27724      1961  MEOH      HO2             6.3120800235       35.7818202181       -8.2118503799  MEOH      1269            0.0000000000
     27725      1961  MEOH      H1A             5.4633521676       37.0841854796       -6.5579595033  MEOH      1269            0.0000000000
     27726      1961  MEOH      H1B             6.4902520463       36.1772657973       -5.3783277851  MEOH      1269            0.0000000000
     27727      1961  MEOH      H1C             5.1518452614       35.3308254885       -6.2348014004  MEOH      1269            0.0000000000
     27728      1961  MEOH      LP1A            6.6723684917       35.5619554815       -7.6396947040  MEOH      1269            0.0000000000
     27729      1961  MEOH      LP1B            7.1549349916       35.8934627531       -7.3400589218  MEOH      1269            0.0000000000
     27730      1962  MEOH      C1            -34.0624333695      -34.8313452948       20.6049110107  MEOH      1270            0.0000000000
     27731      1962  MEOH      DC1           -34.0525071397      -34.8374554994       20.5966216942  MEOH      1270            0.0000000000
     27732      1962  MEOH      O1            -34.9531638440      -34.4639430108       19.5473263272  MEOH      1270            0.0000000000
     27733      1962  MEOH      DO1           -34.9402713789      -34.4754570012       19.5420449968  MEOH      1270            0.0000000000
     27734      1962  MEOH      HO1           -35.6591090282      -35.1275983664       19.5014682213  MEOH      1270            0.0000000000
     27735      1962  MEOH      HO2           -35.2031050478      -33.5446597649       19.7299398802  MEOH      1270            0.0000000000
     27736      1962  MEOH      H1A           -33.2770375569      -34.0528325650       20.7116459494  MEOH      1270            0.0000000000
     27737      1962  MEOH      H1B           -33.6033870924      -35.8228067459       20.4034123570  MEOH      1270            0.0000000000
     27738      1962  MEOH      H1C           -34.5951091494      -34.9302795257       21.5748540666  MEOH      1270            0.0000000000
     27739      1962  MEOH      LP1A          -35.2037459667      -34.2525424810       19.6698759734  MEOH      1270            0.0000000000
     27740      1962  MEOH      LP1B          -34.8451933757      -34.6046243889       19.2455795330  MEOH      1270            0.0000000000
     27741      1963  MEOH      C1              7.3137875795      -13.3163891911      -29.8372998875  MEOH      1271            0.0000000000
     27742      1963  MEOH      DC1             7.3047787646      -13.3304274628      -29.8257152316  MEOH      1271            0.0000000000
     27743      1963  MEOH      O1              7.8430199974      -12.1908365922      -29.1325371559  MEOH      1271            0.0000000000
     27744      1963  MEOH      DO1             7.8340160199      -12.1999804860      -29.1137001442  MEOH      1271            0.0000000000
     27745      1963  MEOH      HO1             8.3904233671      -11.7037863714      -29.7681719828  MEOH      1271            0.0000000000
     27746      1963  MEOH      HO2             7.0869806355      -11.7608810424      -28.7030692175  MEOH      1271            0.0000000000
     27747      1963  MEOH      H1A             6.7574099375      -13.9713995817      -29.1332215477  MEOH      1271            0.0000000000
     27748      1963  MEOH      H1B             8.1426673978      -13.8955499327      -30.2975738082  MEOH      1271            0.0000000000
     27749      1963  MEOH      H1C             6.6283954403      -12.9665151399      -30.6386404930  MEOH      1271            0.0000000000
     27750      1963  MEOH      LP1A            7.6229631134      -11.9198012322      -29.1573323457  MEOH      1271            0.0000000000
     27751      1963  MEOH      LP1B            8.1462038671      -12.2767294519      -28.9802152672  MEOH      1271            0.0000000000
     27752      1964  MEOH      C1            -18.8002724578       22.0964598950       -3.8705670499  MEOH      1272            0.0000000000
     27753      1964  MEOH      DC1           -18.8048757194       22.0895528046       -3.8670392860  MEOH      1272            0.0000000000
     27754      1964  MEOH      O1            -17.8207703978       22.7122439515       -3.0284846827  MEOH      1272            0.0000000000
     27755      1964  MEOH      DO1           -17.8242078243       22.7061072792       -3.0134296149  MEOH      1272            0.0000000000
     27756      1964  MEOH      HO1           -17.2576118200       23.2528763775       -3.6042181247  MEOH      1272            0.0000000000
     27757      1964  MEOH      HO2           -18.3237500734       23.1429124985       -2.3196574477  MEOH      1272            0.0000000000
     27758      1964  MEOH      H1A           -19.4581980527       21.4493824912       -3.2519025636  MEOH      1272            0.0000000000
     27759      1964  MEOH      H1B           -18.2981642367       21.4716352568       -4.6398540616  MEOH      1272            0.0000000000
     27760      1964  MEOH      H1C           -19.4207775267       22.8676693556       -4.3750771364  MEOH      1272            0.0000000000
     27761      1964  MEOH      LP1A          -17.9414608240       23.0179863019       -2.9082539205  MEOH      1272            0.0000000000
     27762      1964  MEOH      LP1B          -17.5407990419       22.5043308407       -2.9986823635  MEOH      1272            0.0000000000
     27763      1965  MEOH      C1             30.4379401512       -6.6950659479      -14.5168095290  MEOH      1273            0.0000000000
     27764      1965  MEOH      DC1            30.4290139749       -6.7051887335      -14.5054899091  MEOH      1273            0.0000000000
     27765      1965  MEOH      O1             31.7171241855       -6.1181016841      -14.7734421236  MEOH      1273            0.0000000000
     27766      1965  MEOH      DO1            31.7112107884       -6.1273855258      -14.7601978596  MEOH      1273            0.0000000000
     27767      1965  MEOH      HO1            31.8129615197       -5.3138407788      -14.2397009863  MEOH      1273            0.0000000000
     27768      1965  MEOH      HO2            32.3598858027       -6.8432167641      -14.7291067514  MEOH      1273            0.0000000000
     27769      1965  MEOH      H1A            30.2647683213       -7.5402396027      -15.2168195369  MEOH      1273            0.0000000000
     27770      1965  MEOH      H1B            29.6493415764       -5.9318053568      -14.6896289663  MEOH      1273            0.0000000000
     27771      1965  MEOH      H1C            30.3887116644       -7.0835094575      -13.4770936072  MEOH      1273            0.0000000000
     27772      1965  MEOH      LP1A           31.9548796544       -6.2516642638      -14.5540489280  MEOH      1273            0.0000000000
     27773      1965  MEOH      LP1B           31.6963876135       -5.8961783663      -15.0432940008  MEOH      1273            0.0000000000
     27774      1966  MEOH      C1            -36.2828394897      -33.9709489751       33.0687044013  MEOH      1274            0.0000000000
     27775      1966  MEOH      DC1           -36.2838204305      -33.9743050732       33.0733574187  MEOH      1274            0.0000000000
     27776      1966  MEOH      O1            -36.6183167853      -32.7494444865       32.4142689158  MEOH      1274            0.0000000000
     27777      1966  MEOH      DO1           -36.6180541675      -32.7542950285       32.4200714962  MEOH      1274            0.0000000000
     27778      1966  MEOH      HO1           -36.9469441797      -32.9675679033       31.5280825862  MEOH      1274            0.0000000000
     27779      1966  MEOH      HO2           -37.1769357221      -32.2587664575       33.0372295534  MEOH      1274            0.0000000000
     27780      1966  MEOH      H1A           -35.7917237985      -33.7439102144       34.0390547396  MEOH      1274            0.0000000000
     27781      1966  MEOH      H1B           -35.5760557101      -34.5514224484       32.4379681347  MEOH      1274            0.0000000000
     27782      1966  MEOH      H1C           -37.1966448631      -34.5743880271       33.2561665327  MEOH      1274            0.0000000000
     27783      1966  MEOH      LP1A          -36.9509172595      -32.6644905256       32.4825312706  MEOH      1274            0.0000000000
     27784      1966  MEOH      LP1B          -36.3388318418      -32.6234110280       32.2454384276  MEOH      1274            0.0000000000
     27785      1967  MEOH      C1              6.4420575753      -12.1580691648      -36.8245648472  MEOH      1275            0.0000000000
     27786      1967  MEOH      DC1             6.4428832103      -12.1620393701      -36.8200742279  MEOH      1275            0.0000000000
     27787      1967  MEOH      O1              5.4864183656      -11.2376973183      -37.3412086796  MEOH      1275            0.0000000000
     27788      1967  MEOH      DO1             5.4857126034      -11.2460440337      -37.3332295045  MEOH      1275            0.0000000000
     27789      1967  MEOH      HO1             4.8000359453      -11.1105688150      -36.6676973451  MEOH      1275            0.0000000000
     27790      1967  MEOH      HO2             6.0098769176      -10.4684847901      -37.6154407544  MEOH      1275            0.0000000000
     27791      1967  MEOH      H1A             7.2132937965      -12.3728970455      -37.5948665243  MEOH      1275            0.0000000000
     27792      1967  MEOH      H1B             5.9514879533      -13.1036482776      -36.5090611429  MEOH      1275            0.0000000000
     27793      1967  MEOH      H1C             6.9427744048      -11.6821340886      -35.9544559679  MEOH      1275            0.0000000000
     27794      1967  MEOH      LP1A            5.5806528806      -10.9101031136      -37.2618242149  MEOH      1275            0.0000000000
     27795      1967  MEOH      LP1B            5.2375392090      -11.4097127680      -37.5171912086  MEOH      1275            0.0000000000
     27796      1968  MEOH      C1             13.5520282386       32.0520547890      -31.5543189952  MEOH      1276            0.0000000000
     27797      1968  MEOH      DC1            13.5592840070       32.0482890046      -31.5587269222  MEOH      1276            0.0000000000
     27798      1968  MEOH      O1             13.3659366550       33.4557720720      -31.7430348359  MEOH      1276            0.0000000000
     27799      1968  MEOH      DO1            13.3746002265       33.4539587045      -31.7438288246  MEOH      1276            0.0000000000
     27800      1968  MEOH      HO1            12.7985246016       33.7741870756      -31.0236215697  MEOH      1276            0.0000000000
     27801      1968  MEOH      HO2            14.2442832976       33.8335348302      -31.9064437527  MEOH      1276            0.0000000000
     27802      1968  MEOH      H1A            13.9625892526       31.6093847785      -32.4869517829  MEOH      1276            0.0000000000
     27803      1968  MEOH      H1B            12.5772680375       31.5692037054      -31.3284465061  MEOH      1276            0.0000000000
     27804      1968  MEOH      H1C            14.2580503446       31.8685564336      -30.7163559043  MEOH      1276            0.0000000000
     27805      1968  MEOH      LP1A           13.6198732589       33.6331638886      -31.5800982083  MEOH      1276            0.0000000000
     27806      1968  MEOH      LP1B           13.0873815620       33.5132441306      -31.9470054776  MEOH      1276            0.0000000000
     27807      1969  MEOH      C1             34.2203223141      -29.4628896147      -22.1855606532  MEOH      1277            0.0000000000
     27808      1969  MEOH      DC1            34.2156279912      -29.4739339878      -22.1899278726  MEOH      1277            0.0000000000
     27809      1969  MEOH      O1             32.9270071872      -29.8065081610      -21.6951199846  MEOH      1277            0.0000000000
     27810      1969  MEOH      DO1            32.9317076058      -29.8210038171      -21.6990295871  MEOH      1277            0.0000000000
     27811      1969  MEOH      HO1            32.5627455568      -29.0248011002      -21.2511069941  MEOH      1277            0.0000000000
     27812      1969  MEOH      HO2            32.4566222064      -30.2138107782      -22.4392587816  MEOH      1277            0.0000000000
     27813      1969  MEOH      H1A            34.6838144084      -30.3588758029      -22.6510763133  MEOH      1277            0.0000000000
     27814      1969  MEOH      H1B            34.8727138317      -29.0976209767      -21.3638033108  MEOH      1277            0.0000000000
     27815      1969  MEOH      H1C            34.1269402920      -28.6781800003      -22.9664778196  MEOH      1277            0.0000000000
     27816      1969  MEOH      LP1A           32.6851624637      -29.7418921138      -21.9397337540  MEOH      1277            0.0000000000
     27817      1969  MEOH      LP1B           32.9527977330      -29.9394405997      -21.3723757910  MEOH      1277            0.0000000000
     27818      1970  MEOH      C1             -6.3055362209       -4.6953610580       35.8319394263  MEOH      1278            0.0000000000
     27819      1970  MEOH      DC1            -6.3051986487       -4.7077751045       35.8352475694  MEOH      1278            0.0000000000
     27820      1970  MEOH      O1             -6.5527160554       -4.9759305546       34.4542773932  MEOH      1278            0.0000000000
     27821      1970  MEOH      DO1            -6.5565728695       -4.9874082912       34.4579034743  MEOH      1278            0.0000000000
     27822      1970  MEOH      HO1            -7.2141479936       -5.6840257039       34.4094549579  MEOH      1278            0.0000000000
     27823      1970  MEOH      HO2            -6.7492083329       -4.1157071419       34.0514046271  MEOH      1278            0.0000000000
     27824      1970  MEOH      H1A            -5.5441900476       -3.8909627167       35.9192109214  MEOH      1278            0.0000000000
     27825      1970  MEOH      H1B            -5.9318589297       -5.6061221273       36.3469156944  MEOH      1278            0.0000000000
     27826      1970  MEOH      H1C            -7.2443224556       -4.3552887796       36.3191275344  MEOH      1278            0.0000000000
     27827      1970  MEOH      LP1A           -6.8098712749       -4.7708643628       34.3346151600  MEOH      1278            0.0000000000
     27828      1970  MEOH      LP1B           -6.3294330246       -5.2199751251       34.3398792474  MEOH      1278            0.0000000000
     27829      1971  MEOH      C1            -34.3779703806       -2.0129775244       12.1221851795  MEOH      1279            0.0000000000
     27830      1971  MEOH      DC1           -34.3740991105       -2.0143355645       12.1353525338  MEOH      1279            0.0000000000
     27831      1971  MEOH      O1            -34.6679657987       -0.6183435643       12.0134884346  MEOH      1279            0.0000000000
     27832      1971  MEOH      DO1           -34.6644769338       -0.6214887807       12.0328227565  MEOH      1279            0.0000000000
     27833      1971  MEOH      HO1           -34.0900941128       -0.2518649548       11.3259873485  MEOH      1279            0.0000000000
     27834      1971  MEOH      HO2           -35.6288891633       -0.5664435604       11.8916989543  MEOH      1279            0.0000000000
     27835      1971  MEOH      H1A           -35.0386717059       -2.4777568693       12.8849268923  MEOH      1279            0.0000000000
     27836      1971  MEOH      H1B           -33.3189478570       -2.1646535468       12.4218294360  MEOH      1279            0.0000000000
     27837      1971  MEOH      H1C           -34.5623587495       -2.5079576100       11.1447821693  MEOH      1279            0.0000000000
     27838      1971  MEOH      LP1A          -34.9249650175       -0.5672447115       11.7814532890  MEOH      1279            0.0000000000
     27839      1971  MEOH      LP1B          -34.4674770944       -0.4367230567       12.2355656072  MEOH      1279            0.0000000000
     27840      1972  MEOH      C1             20.7704126133      -15.5785130445       15.6530293213  MEOH      1280            0.0000000000
     27841      1972  MEOH      DC1            20.7710247853      -15.5829261630       15.6497269436  MEOH      1280            0.0000000000
     27842      1972  MEOH      O1             20.9623126887      -16.8960633674       16.1480139613  MEOH      1280            0.0000000000
     27843      1972  MEOH      DO1            20.9674024969      -16.8968068437       16.1517840216  MEOH      1280            0.0000000000
     27844      1972  MEOH      HO1            20.2357724084      -17.4431816230       15.8108184164  MEOH      1280            0.0000000000
     27845      1972  MEOH      HO2            21.8763621425      -17.1348484242       15.9280246565  MEOH      1280            0.0000000000
     27846      1972  MEOH      H1A            21.5590160808      -14.9111381291       16.0617300592  MEOH      1280            0.0000000000
     27847      1972  MEOH      H1B            19.7802053568      -15.1918274330       15.9759609377  MEOH      1280            0.0000000000
     27848      1972  MEOH      H1C            20.8229228166      -15.5916659968       14.5433488812  MEOH      1280            0.0000000000
     27849      1972  MEOH      LP1A           21.1621903921      -17.0791850701       15.9266198653  MEOH      1280            0.0000000000
     27850      1972  MEOH      LP1B           20.8042841296      -16.9315762920       16.4582812761  MEOH      1280            0.0000000000
     27851      1973  MEOH      C1              2.5138702959      -28.6069774561        1.0497732466  MEOH      1281            0.0000000000
     27852      1973  MEOH      DC1             2.5046189379      -28.5959612099        1.0528628372  MEOH      1281            0.0000000000
     27853      1973  MEOH      O1              3.7570571959      -27.9056870174        1.0937205646  MEOH      1281            0.0000000000
     27854      1973  MEOH      DO1             3.7567763065      -27.8993984910        1.0997904141  MEOH      1281            0.0000000000
     27855      1973  MEOH      HO1             3.6883409865      -27.2211189055        1.7774928825  MEOH      1281            0.0000000000
     27856      1973  MEOH      HO2             4.4439820391      -28.5888241193        1.1422794040  MEOH      1281            0.0000000000
     27857      1973  MEOH      H1A             2.5339758785      -29.3507274532        0.2246958514  MEOH      1281            0.0000000000
     27858      1973  MEOH      H1B             1.6853617293      -27.8894932529        0.8678090379  MEOH      1281            0.0000000000
     27859      1973  MEOH      H1C             2.3512595093      -29.1491782031        2.0057528927  MEOH      1281            0.0000000000
     27860      1973  MEOH      LP1A            3.9754020852      -28.0630156201        1.3174910276  MEOH      1281            0.0000000000
     27861      1973  MEOH      LP1B            3.7512113357      -27.6374800032        0.8689299433  MEOH      1281            0.0000000000
     27862      1974  MEOH      C1             14.5299837663      -28.3399911215       33.4094286207  MEOH      1282            0.0000000000
     27863      1974  MEOH      DC1            14.5236477725      -28.3461017255       33.4028212382  MEOH      1282            0.0000000000
     27864      1974  MEOH      O1             13.3547699041      -28.1175365398       32.6253650390  MEOH      1282            0.0000000000
     27865      1974  MEOH      DO1            13.3501854923      -28.1297373683       32.6255689585  MEOH      1282            0.0000000000
     27866      1974  MEOH      HO1            13.4795404999      -28.5174569548       31.7504959279  MEOH      1282            0.0000000000
     27867      1974  MEOH      HO2            12.5994947238      -28.3540987048       33.1861660233  MEOH      1282            0.0000000000
     27868      1974  MEOH      H1A            14.4668954849      -27.7416666292       34.3434246973  MEOH      1282            0.0000000000
     27869      1974  MEOH      H1B            15.4355143919      -28.0225158298       32.8494779754  MEOH      1282            0.0000000000
     27870      1974  MEOH      H1C            14.6175126672      -29.4139239461       33.6802200183  MEOH      1282            0.0000000000
     27871      1974  MEOH      LP1A           13.1266433485      -28.3783012884       32.6749636330  MEOH      1282            0.0000000000
     27872      1974  MEOH      LP1B           13.3813628228      -27.8139152144       32.4532984605  MEOH      1282            0.0000000000
     27873      1975  MEOH      C1             37.1102136054      -18.1213264863       16.6982087729  MEOH      1283            0.0000000000
     27874      1975  MEOH      DC1            37.1054343208      -18.1140729255       16.7015948929  MEOH      1283            0.0000000000
     27875      1975  MEOH      O1             37.2018097347      -18.2752439883       18.1176856122  MEOH      1283            0.0000000000
     27876      1975  MEOH      DO1            37.2029642307      -18.2675368825       18.1231884841  MEOH      1283            0.0000000000
     27877      1975  MEOH      HO1            36.7824566734      -17.5005432215       18.5237419291  MEOH      1283            0.0000000000
     27878      1975  MEOH      HO2            36.8540467621      -19.1608201572       18.3066717595  MEOH      1283            0.0000000000
     27879      1975  MEOH      H1A            37.6440728130      -18.9547653445       16.1935355953  MEOH      1283            0.0000000000
     27880      1975  MEOH      H1B            37.5604067260      -17.1550805587       16.3851337612  MEOH      1283            0.0000000000
     27881      1975  MEOH      H1C            36.0474238002      -18.1546505756       16.3762020408  MEOH      1283            0.0000000000
     27882      1975  MEOH      LP1A           36.9233548182      -18.4503120043       18.2373269481  MEOH      1283            0.0000000000
     27883      1975  MEOH      LP1B           37.5010302848      -18.1359396277       18.2341388539  MEOH      1283            0.0000000000
     27884      1976  MEOH      C1            -15.8812515158      -28.2340496132       -1.5910195107  MEOH      1284            0.0000000000
     27885      1976  MEOH      DC1           -15.8776533795      -28.2283130843       -1.5894600457  MEOH      1284            0.0000000000
     27886      1976  MEOH      O1            -14.6598635085      -28.4576521121       -0.8811066904  MEOH      1284            0.0000000000
     27887      1976  MEOH      DO1           -14.6576548057      -28.4497492662       -0.8829005341  MEOH      1284            0.0000000000
     27888      1976  MEOH      HO1           -14.1867740048      -29.1877117996       -1.3101744871  MEOH      1284            0.0000000000
     27889      1976  MEOH      HO2           -14.2471030146      -27.5872981328       -0.7670333544  MEOH      1284            0.0000000000
     27890      1976  MEOH      H1A           -16.5256450325      -27.5386812490       -1.0117606442  MEOH      1284            0.0000000000
     27891      1976  MEOH      H1B           -16.4240730678      -29.1924570253       -1.7363501513  MEOH      1284            0.0000000000
     27892      1976  MEOH      H1C           -15.6735575052      -27.7761910462       -2.5817514279  MEOH      1284            0.0000000000
     27893      1976  MEOH      LP1A          -14.4055952528      -28.2573925724       -1.0143124369  MEOH      1284            0.0000000000
     27894      1976  MEOH      LP1B          -14.7123366291      -28.6868322254       -0.6218326128  MEOH      1284            0.0000000000
     27895      1977  MEOH      C1             11.4511219534      -19.4658665876        7.7375256162  MEOH      1285            0.0000000000
     27896      1977  MEOH      DC1            11.4500232071      -19.4646426645        7.7280120238  MEOH      1285            0.0000000000
     27897      1977  MEOH      O1             10.4511528107      -20.3680467356        8.2171094340  MEOH      1285            0.0000000000
     27898      1977  MEOH      DO1            10.4470778073      -20.3616967678        8.2161736031  MEOH      1285            0.0000000000
     27899      1977  MEOH      HO1            10.6836563136      -20.5895215061        9.1324186971  MEOH      1285            0.0000000000
     27900      1977  MEOH      HO2             9.5957171337      -19.9604440963        8.0097693935  MEOH      1285            0.0000000000
     27901      1977  MEOH      H1A            11.3010015754      -19.2905774043        6.6507604278  MEOH      1285            0.0000000000
     27902      1977  MEOH      H1B            12.4638306505      -19.8918846072        7.9026036037  MEOH      1285            0.0000000000
     27903      1977  MEOH      H1C            11.3733109982      -18.4947263667        8.2715229269  MEOH      1285            0.0000000000
     27904      1977  MEOH      LP1A           10.1862930377      -20.1886698839        8.3591419857  MEOH      1285            0.0000000000
     27905      1977  MEOH      LP1B           10.5432146263      -20.6979853266        8.1452404682  MEOH      1285            0.0000000000
     27906      1978  MEOH      C1              6.5580949060       15.8925953378      -24.6381354613  MEOH      1286            0.0000000000
     27907      1978  MEOH      DC1             6.5643829693       15.8878233436      -24.6439813337  MEOH      1286            0.0000000000
     27908      1978  MEOH      O1              7.1891366381       17.1576548593      -24.5824444342  MEOH      1286            0.0000000000
     27909      1978  MEOH      DO1             7.1975596503       17.1632767995      -24.6005672289  MEOH      1286            0.0000000000
     27910      1978  MEOH      HO1             6.9596575459       17.5233965830      -23.7138407629  MEOH      1286            0.0000000000
     27911      1978  MEOH      HO2             8.1118934273       17.0096588754      -24.8422849574  MEOH      1286            0.0000000000
     27912      1978  MEOH      H1A             6.6973005889       15.4827588470      -25.6613543180  MEOH      1286            0.0000000000
     27913      1978  MEOH      H1B             5.4713382430       15.9743274173      -24.4222632213  MEOH      1286            0.0000000000
     27914      1978  MEOH      H1C             7.0306880550       15.2341716008      -23.8782309288  MEOH      1286            0.0000000000
     27915      1978  MEOH      LP1A            7.5127910394       17.1244066221      -24.4534390730  MEOH      1286            0.0000000000
     27916      1978  MEOH      LP1B            6.9765029984       17.4033272985      -24.7125674064  MEOH      1286            0.0000000000
     27917      1979  MEOH      C1              0.5783357397       24.2937784705       26.0534952012  MEOH      1287            0.0000000000
     27918      1979  MEOH      DC1             0.5882091935       24.3039861195       26.0709952097  MEOH      1287            0.0000000000
     27919      1979  MEOH      O1              0.5032876777       25.6738963189       25.7268876969  MEOH      1287            0.0000000000
     27920      1979  MEOH      DO1             0.5144970069       25.6772884971       25.7451319150  MEOH      1287            0.0000000000
     27921      1979  MEOH      HO1             0.9952427451       25.7897412769       24.8989624845  MEOH      1287            0.0000000000
     27922      1979  MEOH      HO2            -0.4459348146       25.8719065544       25.7010302528  MEOH      1287            0.0000000000
     27923      1979  MEOH      H1A            -0.0783696118       24.0881906951       26.9257295435  MEOH      1287            0.0000000000
     27924      1979  MEOH      H1B             1.6245294157       24.0055300895       26.2916394114  MEOH      1287            0.0000000000
     27925      1979  MEOH      H1C             0.2347849425       23.6819968871       25.1920910309  MEOH      1287            0.0000000000
     27926      1979  MEOH      LP1A            0.2186576041       25.7356734644       25.5328018771  MEOH      1287            0.0000000000
     27927      1979  MEOH      LP1B            0.7690105608       25.8466659746       25.8753531659  MEOH      1287            0.0000000000
     27928      1980  MEOH      C1             28.6841579424      -25.7950919905       29.7245607710  MEOH      1288            0.0000000000
     27929      1980  MEOH      DC1            28.6568509417      -25.7859717287       29.7122869657  MEOH      1288            0.0000000000
     27930      1980  MEOH      O1             27.6348195707      -25.5575055688       28.7834550235  MEOH      1288            0.0000000000
     27931      1980  MEOH      DO1            27.6079974359      -25.5532966402       28.7639245316  MEOH      1288            0.0000000000
     27932      1980  MEOH      HO1            26.8200140834      -25.6878180534       29.2933674426  MEOH      1288            0.0000000000
     27933      1980  MEOH      HO2            27.8405973289      -24.7044299835       28.3701542129  MEOH      1288            0.0000000000
     27934      1980  MEOH      H1A            29.6782004117      -25.7358468246       29.2319244148  MEOH      1288            0.0000000000
     27935      1980  MEOH      H1B            28.5687846148      -26.8055062162       30.1718560763  MEOH      1288            0.0000000000
     27936      1980  MEOH      H1C            28.6476168689      -25.0409841350       30.5396111333  MEOH      1288            0.0000000000
     27937      1980  MEOH      LP1A           27.5504754300      -25.2178263408       28.7814331437  MEOH      1288            0.0000000000
     27938      1980  MEOH      LP1B           27.5512048098      -25.8553103262       28.6196841525  MEOH      1288            0.0000000000
     27939      1981  MEOH      C1            -12.4079017389      -21.9046283470       24.2632027099  MEOH      1289            0.0000000000
     27940      1981  MEOH      DC1           -12.3933407790      -21.9075503247       24.2566159365  MEOH      1289            0.0000000000
     27941      1981  MEOH      O1            -13.2768048746      -22.1997618069       25.3456658164  MEOH      1289            0.0000000000
     27942      1981  MEOH      DO1           -13.2649733893      -22.2042161718       25.3377915703  MEOH      1289            0.0000000000
     27943      1981  MEOH      HO1           -13.9959721953      -21.5488567570       25.3502464855  MEOH      1289            0.0000000000
     27944      1981  MEOH      HO2           -13.4723145734      -23.1477404319       25.2823216437  MEOH      1289            0.0000000000
     27945      1981  MEOH      H1A           -11.5464919618      -22.6045242446       24.3125983544  MEOH      1289            0.0000000000
     27946      1981  MEOH      H1B           -12.0412035339      -20.8611082458       24.3676978066  MEOH      1289            0.0000000000
     27947      1981  MEOH      H1C           -12.9316376528      -22.0429300664       23.2932056342  MEOH      1289            0.0000000000
     27948      1981  MEOH      LP1A          -13.5246679948      -22.4242728322       25.2424249660  MEOH      1289            0.0000000000
     27949      1981  MEOH      LP1B          -13.1689141511      -22.0339686045       25.6344082723  MEOH      1289            0.0000000000
     27950      1982  MEOH      C1             24.6474534405       18.3619091821      -25.3176028970  MEOH      1290            0.0000000000
     27951      1982  MEOH      DC1            24.6504427091       18.3639081541      -25.3273766355  MEOH      1290            0.0000000000
     27952      1982  MEOH      O1             25.7339409849       19.1162605630      -24.7706349803  MEOH      1290            0.0000000000
     27953      1982  MEOH      DO1            25.7330033378       19.1217839843      -24.7756321857  MEOH      1290            0.0000000000
     27954      1982  MEOH      HO1            26.3428179999       19.3524335466      -25.4878456216  MEOH      1290            0.0000000000
     27955      1982  MEOH      HO2            25.3315740061       19.8043925851      -24.2179369302  MEOH      1290            0.0000000000
     27956      1982  MEOH      H1A            23.9480855517       18.0609716991      -24.5085032813  MEOH      1290            0.0000000000
     27957      1982  MEOH      H1B            25.0296293995       17.4339459150      -25.7942020066  MEOH      1290            0.0000000000
     27958      1982  MEOH      H1C            24.0774226216       18.9675853369      -26.0541775798  MEOH      1290            0.0000000000
     27959      1982  MEOH      LP1A           25.6547993307       19.4571953549      -24.7703775462  MEOH      1290            0.0000000000
     27960      1982  MEOH      LP1B           25.9901716364       18.9006116671      -24.6689422719  MEOH      1290            0.0000000000
     27961      1983  MEOH      C1            -14.9372703866       -8.4228950410        9.9664443265  MEOH      1291            0.0000000000
     27962      1983  MEOH      DC1           -14.9650836536       -8.4791247126        9.9434564102  MEOH      1291            0.0000000000
     27963      1983  MEOH      O1            -16.1993429430       -9.0024656036        9.6302941133  MEOH      1291            0.0000000000
     27964      1983  MEOH      DO1           -16.2077192547       -9.0592008337        9.6084287087  MEOH      1291            0.0000000000
     27965      1983  MEOH      HO1           -16.6726464048       -8.9421133806       10.4748303432  MEOH      1291            0.0000000000
     27966      1983  MEOH      HO2           -16.5396895198       -8.4151420123        8.9373906519  MEOH      1291            0.0000000000
     27967      1983  MEOH      H1A           -14.4473112219       -7.9750662901        9.0755400515  MEOH      1291            0.0000000000
     27968      1983  MEOH      H1B           -14.2556814909       -9.1808555441       10.4083192555  MEOH      1291            0.0000000000
     27969      1983  MEOH      H1C           -15.0922139968       -7.6166395008       10.7149531661  MEOH      1291            0.0000000000
     27970      1983  MEOH      LP1A          -16.4168885569       -8.7551813744        9.5118693866  MEOH      1291            0.0000000000
     27971      1983  MEOH      LP1B          -16.1896222678       -9.3485424906        9.6816389935  MEOH      1291            0.0000000000
     27972      1984  MEOH      C1            -16.2470245180      -30.1180884062       12.9199660046  MEOH      1292            0.0000000000
     27973      1984  MEOH      DC1           -16.2369534981      -30.1102683877       12.9003011020  MEOH      1292            0.0000000000
     27974      1984  MEOH      O1            -16.4562094309      -30.2425613154       14.3221243005  MEOH      1292            0.0000000000
     27975      1984  MEOH      DO1           -16.4571264280      -30.2424500038       14.3080724047  MEOH      1292            0.0000000000
     27976      1984  MEOH      HO1           -15.7661450812      -30.8245020095       14.6771682737  MEOH      1292            0.0000000000
     27977      1984  MEOH      HO2           -16.5496846925      -29.3350953971       14.6517725716  MEOH      1292            0.0000000000
     27978      1984  MEOH      H1A           -17.0796011646      -29.5410264690       12.4637460487  MEOH      1292            0.0000000000
     27979      1984  MEOH      H1B           -16.2164031890      -31.1284173386       12.4588599608  MEOH      1292            0.0000000000
     27980      1984  MEOH      H1C           -15.2847715681      -29.5879026212       12.7547591819  MEOH      1292            0.0000000000
     27981      1984  MEOH      LP1A          -16.2850916773      -29.9886593609       14.4916899571  MEOH      1292            0.0000000000
     27982      1984  MEOH      LP1B          -16.6716515965      -30.5104886127       14.3876959155  MEOH      1292            0.0000000000
     27983      1985  MEOH      C1            -20.2493997759        3.9031300206      -10.8404459035  MEOH      1293            0.0000000000
     27984      1985  MEOH      DC1           -20.2427928952        3.9074670208      -10.8276647386  MEOH      1293            0.0000000000
     27985      1985  MEOH      O1            -19.3723170578        3.4274575908       -9.8143557688  MEOH      1293            0.0000000000
     27986      1985  MEOH      DO1           -19.3617271267        3.4335009457       -9.8096981964  MEOH      1293            0.0000000000
     27987      1985  MEOH      HO1           -18.7291599682        2.8328862114      -10.2311696763  MEOH      1293            0.0000000000
     27988      1985  MEOH      HO2           -19.0876755975        4.2085798715       -9.3146286216  MEOH      1293            0.0000000000
     27989      1985  MEOH      H1A           -21.0994683059        4.4709949904      -10.4054357079  MEOH      1293            0.0000000000
     27990      1985  MEOH      H1B           -20.6601689665        3.0480058422      -11.4186779615  MEOH      1293            0.0000000000
     27991      1985  MEOH      H1C           -19.6905705549        4.5745087655      -11.5269453451  MEOH      1293            0.0000000000
     27992      1985  MEOH      LP1A          -19.1009858796        3.6455683589       -9.7782021446  MEOH      1293            0.0000000000
     27993      1985  MEOH      LP1B          -19.5026863853        3.1359493773       -9.6710839993  MEOH      1293            0.0000000000
     27994      1986  MEOH      C1             21.0364312597        7.2807824107      -21.9795049547  MEOH      1294            0.0000000000
     27995      1986  MEOH      DC1            21.0401580275        7.2744948907      -21.9771598102  MEOH      1294            0.0000000000
     27996      1986  MEOH      O1             20.4785657158        6.9987937672      -23.2629968335  MEOH      1294            0.0000000000
     27997      1986  MEOH      DO1            20.4826767071        6.9862148117      -23.2589690984  MEOH      1294            0.0000000000
     27998      1986  MEOH      HO1            19.5135855957        7.0359218234      -23.1717012858  MEOH      1294            0.0000000000
     27999      1986  MEOH      HO2            20.9114426904        7.6175507122      -23.8718131997  MEOH      1294            0.0000000000
     28000      1986  MEOH      H1A            22.1451469988        7.2730402804      -22.0502896345  MEOH      1294            0.0000000000
     28001      1986  MEOH      H1B            20.7134041682        6.5115330659      -21.2458633905  MEOH      1294            0.0000000000
     28002      1986  MEOH      H1C            20.7001238668        8.2809122137      -21.6317137607  MEOH      1294            0.0000000000
     28003      1986  MEOH      LP1A           20.4425186255        7.2952002256      -23.4455997324  MEOH      1294            0.0000000000
     28004      1986  MEOH      LP1B           20.4316229596        6.6539329148      -23.2999748018  MEOH      1294            0.0000000000
     28005      1987  MEOH      C1            -17.8192928443        1.9418470650       -1.6832277445  MEOH      1295            0.0000000000
     28006      1987  MEOH      DC1           -17.8407264494        1.9235449646       -1.6861647123  MEOH      1295            0.0000000000
     28007      1987  MEOH      O1            -16.4615487071        1.8711406438       -2.1141131701  MEOH      1295            0.0000000000
     28008      1987  MEOH      DO1           -16.4800037134        1.8685717670       -2.1103478093  MEOH      1295            0.0000000000
     28009      1987  MEOH      HO1           -16.3040685609        2.5727590650       -2.7651366682  MEOH      1295            0.0000000000
     28010      1987  MEOH      HO2           -15.9254434832        1.8416162244       -1.3062644853  MEOH      1295            0.0000000000
     28011      1987  MEOH      H1A           -18.0169035234        1.1047674696       -0.9799719083  MEOH      1295            0.0000000000
     28012      1987  MEOH      H1B           -18.4953456147        1.8744446660       -2.5622786919  MEOH      1295            0.0000000000
     28013      1987  MEOH      H1C           -17.9977100388        2.9027194730       -1.1548221029  MEOH      1295            0.0000000000
     28014      1987  MEOH      LP1A          -16.2592756143        2.0655760237       -1.9048753175  MEOH      1295            0.0000000000
     28015      1987  MEOH      LP1B          -16.4341621676        1.6558738372       -2.3887223095  MEOH      1295            0.0000000000
     28016      1988  MEOH      C1             34.8864102360       17.3707007015      -35.5755954858  MEOH      1296            0.0000000000
     28017      1988  MEOH      DC1            34.8849756583       17.3618389398      -35.5812087381  MEOH      1296            0.0000000000
     28018      1988  MEOH      O1             34.5345172372       16.4062109226      -36.5638444147  MEOH      1296            0.0000000000
     28019      1988  MEOH      DO1            34.5363234483       16.3945164273      -36.5697709215  MEOH      1296            0.0000000000
     28020      1988  MEOH      HO1            35.2418123062       15.7425018201      -36.5749760158  MEOH      1296            0.0000000000
     28021      1988  MEOH      HO2            33.6163489996       16.1514595351      -36.3822712374  MEOH      1296            0.0000000000
     28022      1988  MEOH      H1A            34.1356149177       18.1896167683      -35.5775618459  MEOH      1296            0.0000000000
     28023      1988  MEOH      H1B            35.8887398458       17.7946849771      -35.7989644347  MEOH      1296            0.0000000000
     28024      1988  MEOH      H1C            34.9087538033       16.8922138568      -34.5731623924  MEOH      1296            0.0000000000
     28025      1988  MEOH      LP1A           34.3397219719       16.1533303814      -36.4202956895  MEOH      1296            0.0000000000
     28026      1988  MEOH      LP1B           34.6605804134       16.5028977981      -36.8757093273  MEOH      1296            0.0000000000
     28027      1989  MEOH      C1             -7.8006386927       31.7677878260      -35.0748222159  MEOH      1297            0.0000000000
     28028      1989  MEOH      DC1            -7.7901559610       31.7654531224      -35.0729599902  MEOH      1297            0.0000000000
     28029      1989  MEOH      O1             -8.9948049030       32.4508382215      -35.4534831375  MEOH      1297            0.0000000000
     28030      1989  MEOH      DO1            -8.9783253911       32.4498660857      -35.4494789911  MEOH      1297            0.0000000000
     28031      1989  MEOH      HO1            -8.8189585996       33.0143040281      -36.2232131965  MEOH      1297            0.0000000000
     28032      1989  MEOH      HO2            -9.6782243333       31.7650903816      -35.5133812371  MEOH      1297            0.0000000000
     28033      1989  MEOH      H1A            -8.0009979784       31.1664560142      -34.1623655269  MEOH      1297            0.0000000000
     28034      1989  MEOH      H1B            -6.9893700670       32.4899421186      -34.8410330061  MEOH      1297            0.0000000000
     28035      1989  MEOH      H1C            -7.4820667701       31.0890399476      -35.8946601567  MEOH      1297            0.0000000000
     28036      1989  MEOH      LP1A           -9.1766468710       32.2568279502      -35.6810650201  MEOH      1297            0.0000000000
     28037      1989  MEOH      LP1B           -9.0189795814       32.7543407386      -35.2808511386  MEOH      1297            0.0000000000
     28038      1990  MEOH      C1              8.1927944235       22.8580741751       20.3834487210  MEOH      1298            0.0000000000
     28039      1990  MEOH      DC1             8.1865344755       22.8578099062       20.3995855876  MEOH      1298            0.0000000000
     28040      1990  MEOH      O1              9.0018815076       21.7182982961       20.0812694937  MEOH      1298            0.0000000000
     28041      1990  MEOH      DO1             9.0007587731       21.7141344940       20.0939625567  MEOH      1298            0.0000000000
     28042      1990  MEOH      HO1             9.8412183381       21.8036791060       20.5599382767  MEOH      1298            0.0000000000
     28043      1990  MEOH      HO2             8.4307066154       20.9391108348       20.1680228371  MEOH      1298            0.0000000000
     28044      1990  MEOH      H1A             7.3275026341       22.8699843440       19.6867068268  MEOH      1298            0.0000000000
     28045      1990  MEOH      H1B             8.7720851313       23.7937191665       20.2307669372  MEOH      1298            0.0000000000
     28046      1990  MEOH      H1C             7.8256477211       22.8110286447       21.4309748617  MEOH      1298            0.0000000000
     28047      1990  MEOH      LP1A            8.9356182497       21.4607419656       20.3088083195  MEOH      1298            0.0000000000
     28048      1990  MEOH      LP1B            9.1952898973       21.7809333559       19.7963659239  MEOH      1298            0.0000000000
     28049      1991  MEOH      C1            -21.6348231682        3.6189550145        1.1781228134  MEOH      1299            0.0000000000
     28050      1991  MEOH      DC1           -21.6484375179        3.6132746556        1.1808728652  MEOH      1299            0.0000000000
     28051      1991  MEOH      O1            -21.9944437249        2.9917998442        2.4156599608  MEOH      1299            0.0000000000
     28052      1991  MEOH      DO1           -22.0134129377        2.9914104449        2.4195407459  MEOH      1299            0.0000000000
     28053      1991  MEOH      HO1           -21.9034475095        2.0370671380        2.2703838454  MEOH      1299            0.0000000000
     28054      1991  MEOH      HO2           -21.4438218161        3.4165173735        3.0919221391  MEOH      1299            0.0000000000
     28055      1991  MEOH      H1A           -21.6373367989        4.7245607712        1.2874415906  MEOH      1299            0.0000000000
     28056      1991  MEOH      H1B           -22.3504267658        3.3244951591        0.3809240390  MEOH      1299            0.0000000000
     28057      1991  MEOH      H1C           -20.6041706324        3.3319026504        0.8786611454  MEOH      1299            0.0000000000
     28058      1991  MEOH      LP1A          -21.7120954979        2.9594372377        2.6199444204  MEOH      1299            0.0000000000
     28059      1991  MEOH      LP1B          -22.3388189928        2.9297086989        2.4227567566  MEOH      1299            0.0000000000
     28060      1992  MEOH      C1             11.5547542809        1.9996008199       24.5461662081  MEOH      1300            0.0000000000
     28061      1992  MEOH      DC1            11.5603056482        2.0028001749       24.5439463784  MEOH      1300            0.0000000000
     28062      1992  MEOH      O1             11.9066182708        3.3475862975       24.2175128352  MEOH      1300            0.0000000000
     28063      1992  MEOH      DO1            11.9172292541        3.3498931384       24.2065380745  MEOH      1300            0.0000000000
     28064      1992  MEOH      HO1            11.1814700224        3.9041669611       24.5419785231  MEOH      1300            0.0000000000
     28065      1992  MEOH      HO2            12.8036535223        3.4815729486       24.5614246487  MEOH      1300            0.0000000000
     28066      1992  MEOH      H1A            12.3347062351        1.2920940104       24.1920051380  MEOH      1300            0.0000000000
     28067      1992  MEOH      H1B            10.6017056509        1.7236799793       24.0462792206  MEOH      1300            0.0000000000
     28068      1992  MEOH      H1C            11.4397756025        1.8876300278       25.6455130351  MEOH      1300            0.0000000000
     28069      1992  MEOH      LP1A           12.0939486780        3.4890908815       24.4770966776  MEOH      1300            0.0000000000
     28070      1992  MEOH      LP1B           11.7879019918        3.4278345754       23.8981906484  MEOH      1300            0.0000000000
     28071      1993  MEOH      C1             -6.1870386583       36.5777933436       15.9636950917  MEOH      1301            0.0000000000
     28072      1993  MEOH      DC1            -6.2088807185       36.5862455886       15.9718789889  MEOH      1301            0.0000000000
     28073      1993  MEOH      O1             -7.5494564372       36.9476121713       16.1876436048  MEOH      1301            0.0000000000
     28074      1993  MEOH      DO1            -7.5557052192       36.9588652703       16.1942977627  MEOH      1301            0.0000000000
     28075      1993  MEOH      HO1            -7.6671978286       37.1476636560       17.1294590688  MEOH      1301            0.0000000000
     28076      1993  MEOH      HO2            -7.7771701299       37.5912601733       15.4986126008  MEOH      1301            0.0000000000
     28077      1993  MEOH      H1A            -6.0643545180       36.2029307166       14.9250673372  MEOH      1301            0.0000000000
     28078      1993  MEOH      H1B            -5.8696807537       35.7824537378       16.6715367923  MEOH      1301            0.0000000000
     28079      1993  MEOH      H1C            -5.5131035702       37.4519974544       16.0897889855  MEOH      1301            0.0000000000
     28080      1993  MEOH      LP1A           -7.5886659934       37.2925915812       16.1434642267  MEOH      1301            0.0000000000
     28081      1993  MEOH      LP1B           -7.7406862131       36.6630832598       16.2581735368  MEOH      1301            0.0000000000
     28082      1994  MEOH      C1             17.1855779103      -34.0971124995       -8.1713104080  MEOH      1302            0.0000000000
     28083      1994  MEOH      DC1            17.1916986088      -34.0870719440       -8.1695211922  MEOH      1302            0.0000000000
     28084      1994  MEOH      O1             17.9583569951      -33.5246140684       -7.1260933259  MEOH      1302            0.0000000000
     28085      1994  MEOH      DO1            17.9569436347      -33.5136989641       -7.1184678583  MEOH      1302            0.0000000000
     28086      1994  MEOH      HO1            18.0282265371      -32.5733257374       -7.3023566470  MEOH      1302            0.0000000000
     28087      1994  MEOH      HO2            17.6046603015      -33.8717022263       -6.2922297519  MEOH      1302            0.0000000000
     28088      1994  MEOH      H1A            17.2212536651      -35.2038342187       -8.0806722441  MEOH      1302            0.0000000000
     28089      1994  MEOH      H1B            17.5989973892      -33.8080882337       -9.1611943960  MEOH      1302            0.0000000000
     28090      1994  MEOH      H1C            16.1333642562      -33.7512830503       -8.0843080013  MEOH      1302            0.0000000000
     28091      1994  MEOH      LP1A           17.7499404370      -33.4291706305       -6.8616068641  MEOH      1302            0.0000000000
     28092      1994  MEOH      LP1B           18.2981349553      -33.5339036678       -7.2095477510  MEOH      1302            0.0000000000
     28093      1995  MEOH      C1             -5.2252336225      -10.6021800531      -19.4469798017  MEOH      1303            0.0000000000
     28094      1995  MEOH      DC1            -5.2327666223      -10.6103415243      -19.4411695960  MEOH      1303            0.0000000000
     28095      1995  MEOH      O1             -4.2022636167       -9.7209427896      -18.9845023416  MEOH      1303            0.0000000000
     28096      1995  MEOH      DO1            -4.2032394419       -9.7215879197      -18.9816535311  MEOH      1303            0.0000000000
     28097      1995  MEOH      HO1            -3.6313273090      -10.2358642654      -18.3930738960  MEOH      1303            0.0000000000
     28098      1995  MEOH      HO2            -3.8234456272       -9.3282530410      -19.7864946694  MEOH      1303            0.0000000000
     28099      1995  MEOH      H1A            -5.9012822610      -10.0573447167      -20.1401130461  MEOH      1303            0.0000000000
     28100      1995  MEOH      H1B            -5.8145836740      -10.9998156778      -18.5932389573  MEOH      1303            0.0000000000
     28101      1995  MEOH      H1C            -4.7529318206      -11.4438930823      -19.9972262783  MEOH      1303            0.0000000000
     28102      1995  MEOH      LP1A           -3.9301727827       -9.7274368583      -19.2045578007  MEOH      1303            0.0000000000
     28103      1995  MEOH      LP1B           -4.3073066759       -9.5580888637      -18.6930498505  MEOH      1303            0.0000000000
     28104      1996  MEOH      C1             -6.4114009439        7.3342722883       32.8894647811  MEOH      1304            0.0000000000
     28105      1996  MEOH      DC1            -6.4287372378        7.3516373962       32.8964392045  MEOH      1304            0.0000000000
     28106      1996  MEOH      O1             -7.3358443335        8.3743225781       33.2283194359  MEOH      1304            0.0000000000
     28107      1996  MEOH      DO1            -7.3482092726        8.3912778762       33.2333033217  MEOH      1304            0.0000000000
     28108      1996  MEOH      HO1            -7.8367999107        8.5450065460       32.4154169247  MEOH      1304            0.0000000000
     28109      1996  MEOH      HO2            -7.7925949727        8.0740680765       34.0296471394  MEOH      1304            0.0000000000
     28110      1996  MEOH      H1A            -5.7742521243        7.0801896477       33.7634238161  MEOH      1304            0.0000000000
     28111      1996  MEOH      H1B            -5.7500578937        7.6642525432       32.0599713201  MEOH      1304            0.0000000000
     28112      1996  MEOH      H1C            -6.9577209297        6.4201727332       32.5727985902  MEOH      1304            0.0000000000
     28113      1996  MEOH      LP1A           -7.6326645584        8.2353280142       33.3511130241  MEOH      1304            0.0000000000
     28114      1996  MEOH      LP1B           -7.1894356616        8.6873581921       33.1728829394  MEOH      1304            0.0000000000
     28115      1997  MEOH      C1             12.9103740204       32.1520455436       11.5461828407  MEOH      1305            0.0000000000
     28116      1997  MEOH      DC1            12.9141338128       32.1367693443       11.5532464356  MEOH      1305            0.0000000000
     28117      1997  MEOH      O1             13.5869344668       30.9458311647       11.9081333778  MEOH      1305            0.0000000000
     28118      1997  MEOH      DO1            13.5929974899       30.9324134691       11.9229394240  MEOH      1305            0.0000000000
     28119      1997  MEOH      HO1            13.5736165886       30.4140115020       11.0970288959  MEOH      1305            0.0000000000
     28120      1997  MEOH      HO2            14.4377400404       31.2262087541       12.2801794560  MEOH      1305            0.0000000000
     28121      1997  MEOH      H1A            12.9020256506       32.8760008424       12.3888809078  MEOH      1305            0.0000000000
     28122      1997  MEOH      H1B            11.8652504658       31.9298521719       11.2417688762  MEOH      1305            0.0000000000
     28123      1997  MEOH      H1C            13.4332048047       32.6337064317       10.6923844103  MEOH      1305            0.0000000000
     28124      1997  MEOH      LP1A           13.9306951035       30.9798774025       11.8518352573  MEOH      1305            0.0000000000
     28125      1997  MEOH      LP1B           13.3580104675       30.7138276704       12.0356801582  MEOH      1305            0.0000000000
     28126      1998  MEOH      C1             17.7203470008       16.3163310099        6.0257266096  MEOH      1306            0.0000000000
     28127      1998  MEOH      DC1            17.7282293694       16.3146170529        6.0244373683  MEOH      1306            0.0000000000
     28128      1998  MEOH      O1             18.3320337161       16.8231675119        4.8391140701  MEOH      1306            0.0000000000
     28129      1998  MEOH      DO1            18.3450929289       16.8198933371        4.8422854040  MEOH      1306            0.0000000000
     28130      1998  MEOH      HO1            18.9578976030       17.5215610747        5.0869866717  MEOH      1306            0.0000000000
     28131      1998  MEOH      HO2            18.5787215321       16.0612702299        4.2917954661  MEOH      1306            0.0000000000
     28132      1998  MEOH      H1A            16.8614351576       15.6639275008        5.7593413455  MEOH      1306            0.0000000000
     28133      1998  MEOH      H1B            17.3333844417       17.1701170580        6.6220741278  MEOH      1306            0.0000000000
     28134      1998  MEOH      H1C            18.4540793356       15.7382380933        6.6271968422  MEOH      1306            0.0000000000
     28135      1998  MEOH      LP1A           18.6193447546       16.6379208625        4.7640404659  MEOH      1306            0.0000000000
     28136      1998  MEOH      LP1B           18.1411200271       17.0860420556        4.7089259846  MEOH      1306            0.0000000000
     28137      1999  MEOH      C1            -11.4268574799      -14.7207946461        6.6965541334  MEOH      1307            0.0000000000
     28138      1999  MEOH      DC1           -11.4489073098      -14.7346209222        6.6865629070  MEOH      1307            0.0000000000
     28139      1999  MEOH      O1            -11.7308133244      -16.0020906945        6.1462678027  MEOH      1307            0.0000000000
     28140      1999  MEOH      DO1           -11.7459881039      -15.9990104344        6.1319959663  MEOH      1307            0.0000000000
     28141      1999  MEOH      HO1           -11.2930527100      -16.6518149167        6.7182154238  MEOH      1307            0.0000000000
     28142      1999  MEOH      HO2           -12.6881697435      -16.0261810001        5.9920330983  MEOH      1307            0.0000000000
     28143      1999  MEOH      H1A           -11.7083330306      -13.9119986335        5.9887819070  MEOH      1307            0.0000000000
     28144      1999  MEOH      H1B           -10.3385578773      -14.6477232207        6.9077070236  MEOH      1307            0.0000000000
     28145      1999  MEOH      H1C           -11.9883536043      -14.5705531647        7.6433754470  MEOH      1307            0.0000000000
     28146      1999  MEOH      LP1A          -12.0289778977      -16.1236266045        6.2834789896  MEOH      1307            0.0000000000
     28147      1999  MEOH      LP1B          -11.4897378622      -16.0904686874        5.9084192124  MEOH      1307            0.0000000000
     28148      2000  MEOH      C1             19.9202721704       -0.4869071074       -3.8552997405  MEOH      1308            0.0000000000
     28149      2000  MEOH      DC1            19.9271796201       -0.4934994365       -3.8516269372  MEOH      1308            0.0000000000
     28150      2000  MEOH      O1             21.3372178804       -0.6223548391       -3.9843296852  MEOH      1308            0.0000000000
     28151      2000  MEOH      DO1            21.3330575561       -0.6230082057       -3.9812188555  MEOH      1308            0.0000000000
     28152      2000  MEOH      HO1            21.7396503380        0.2576761844       -3.9172960015  MEOH      1308            0.0000000000
     28153      2000  MEOH      HO2            21.6057195683       -1.3313371794       -3.3792256568  MEOH      1308            0.0000000000
     28154      2000  MEOH      H1A            19.4457890978       -1.4756112538       -4.0332068084  MEOH      1308            0.0000000000
     28155      2000  MEOH      H1B            19.5160008712        0.2377400308       -4.5940637377  MEOH      1308            0.0000000000
     28156      2000  MEOH      H1C            19.6580929783       -0.1417522558       -2.8323377665  MEOH      1308            0.0000000000
     28157      2000  MEOH      LP1A           21.4814454643       -0.6761459124       -3.6699971790  MEOH      1308            0.0000000000
     28158      2000  MEOH      LP1B           21.4291512548       -0.6026087449       -4.3214622206  MEOH      1308            0.0000000000
     28159      2001  MEOH      C1            -32.4299810758       -4.1496088968       25.5338673226  MEOH      1309            0.0000000000
     28160      2001  MEOH      DC1           -32.4445764687       -4.1459468486       25.5334115150  MEOH      1309            0.0000000000
     28161      2001  MEOH      O1            -31.6943607858       -3.0642337597       26.0951053591  MEOH      1309            0.0000000000
     28162      2001  MEOH      DO1           -31.7010812191       -3.0578631995       26.0909999401  MEOH      1309            0.0000000000
     28163      2001  MEOH      HO1           -30.7787259765       -3.1603230807       25.7896880405  MEOH      1309            0.0000000000
     28164      2001  MEOH      HO2           -32.2044309613       -2.2606283861       25.9081646700  MEOH      1309            0.0000000000
     28165      2001  MEOH      H1A           -33.4506408040       -4.1674537106       25.9723377113  MEOH      1309            0.0000000000
     28166      2001  MEOH      H1B           -31.9227200050       -5.1105780053       25.7652665012  MEOH      1309            0.0000000000
     28167      2001  MEOH      H1C           -32.5040987601       -4.0233401414       24.4325572977  MEOH      1309            0.0000000000
     28168      2001  MEOH      LP1A          -31.7062729795       -2.7879346065       25.8805899107  MEOH      1309            0.0000000000
     28169      2001  MEOH      LP1B          -31.5685012717       -3.1545273009       26.4089627457  MEOH      1309            0.0000000000
     28170      2002  MEOH      C1              5.3753577103        9.4966429159      -24.8964568108  MEOH      1310            0.0000000000
     28171      2002  MEOH      DC1             5.3693683869        9.4986934024      -24.8699165672  MEOH      1310            0.0000000000
     28172      2002  MEOH      O1              4.9664258495        9.4198949235      -23.5323873906  MEOH      1310            0.0000000000
     28173      2002  MEOH      DO1             4.9527362095        9.4203491643      -23.5188677915  MEOH      1310            0.0000000000
     28174      2002  MEOH      HO1             5.7576165169        9.1720722869      -23.0288982947  MEOH      1310            0.0000000000
     28175      2002  MEOH      HO2             4.5026278227       10.2501718705      -23.3415168017  MEOH      1310            0.0000000000
     28176      2002  MEOH      H1A             4.5000716686        9.6706317951      -25.5582144834  MEOH      1310            0.0000000000
     28177      2002  MEOH      H1B             5.8679211684        8.5489643110      -25.2024102421  MEOH      1310            0.0000000000
     28178      2002  MEOH      H1C             6.1024549807       10.3257031338      -25.0317702034  MEOH      1310            0.0000000000
     28179      2002  MEOH      LP1A            5.0008134239        9.7327667979      -23.3793230742  MEOH      1310            0.0000000000
     28180      2002  MEOH      LP1B            4.8526976935        9.0970128701      -23.4594964710  MEOH      1310            0.0000000000
     28181      2003  MEOH      C1              2.1577412794       25.5137223720      -27.3838516857  MEOH      1311            0.0000000000
     28182      2003  MEOH      DC1             2.1645069824       25.5206935395      -27.3838886888  MEOH      1311            0.0000000000
     28183      2003  MEOH      O1              1.0174047525       25.5402202378      -28.2381421493  MEOH      1311            0.0000000000
     28184      2003  MEOH      DO1             1.0234915037       25.5562589508      -28.2354316305  MEOH      1311            0.0000000000
     28185      2003  MEOH      HO1             0.2354457123       25.2988244245      -27.7174040947  MEOH      1311            0.0000000000
     28186      2003  MEOH      HO2             1.0728699644       26.3668335023      -28.7426558965  MEOH      1311            0.0000000000
     28187      2003  MEOH      H1A             3.0817373751       25.5582133985      -27.9991343555  MEOH      1311            0.0000000000
     28188      2003  MEOH      H1B             2.1802858102       24.5612159665      -26.8124111433  MEOH      1311            0.0000000000
     28189      2003  MEOH      H1C             2.1452858880       26.3737327861      -26.6806106520  MEOH      1311            0.0000000000
     28190      2003  MEOH      LP1A            0.8766624044       25.8606699945      -28.2400249449  MEOH      1311            0.0000000000
     28191      2003  MEOH      LP1B            0.9732469123       25.2273078481      -28.3885945390  MEOH      1311            0.0000000000
     28192      2004  MEOH      C1             10.7943773832        5.7428755859       -0.2989080152  MEOH      1312            0.0000000000
     28193      2004  MEOH      DC1            10.7961210205        5.7311116194       -0.2882339068  MEOH      1312            0.0000000000
     28194      2004  MEOH      O1             11.7322434482        6.7039707537       -0.7907792067  MEOH      1312            0.0000000000
     28195      2004  MEOH      DO1            11.7408927498        6.6913463186       -0.7893833250  MEOH      1312            0.0000000000
     28196      2004  MEOH      HO1            12.3707693387        6.8952469866       -0.0860820449  MEOH      1312            0.0000000000
     28197      2004  MEOH      HO2            11.9983609726        6.4161170906       -1.6780343743  MEOH      1312            0.0000000000
     28198      2004  MEOH      H1A             9.9288176377        5.6792858684       -0.9925099733  MEOH      1312            0.0000000000
     28199      2004  MEOH      H1B            10.3905343365        6.0669872669        0.6840382764  MEOH      1312            0.0000000000
     28200      2004  MEOH      H1C            11.2843025392        4.7492145667       -0.2156486589  MEOH      1312            0.0000000000
     28201      2004  MEOH      LP1A           12.0006311525        6.5410396541       -0.9454449657  MEOH      1312            0.0000000000
     28202      2004  MEOH      LP1B           11.6153952185        7.0279676677       -0.7285498653  MEOH      1312            0.0000000000
     28203      2005  MEOH      C1             36.2594766701      -35.4619352172       24.9027062575  MEOH      1313            0.0000000000
     28204      2005  MEOH      DC1            36.2652038686      -35.4615624762       24.8954598756  MEOH      1313            0.0000000000
     28205      2005  MEOH      O1             36.4895940649      -35.0477927509       26.2486234075  MEOH      1313            0.0000000000
     28206      2005  MEOH      DO1            36.4958916795      -35.0452265869       26.2437642494  MEOH      1313            0.0000000000
     28207      2005  MEOH      HO1            37.1310074122      -35.6657519197       26.6328308822  MEOH      1313            0.0000000000
     28208      2005  MEOH      HO2            36.6742280433      -34.0960853148       26.2160158719  MEOH      1313            0.0000000000
     28209      2005  MEOH      H1A            35.5442878306      -34.7684305741       24.4108960958  MEOH      1313            0.0000000000
     28210      2005  MEOH      H1B            35.8398079106      -36.4902164595       24.8737784278  MEOH      1313            0.0000000000
     28211      2005  MEOH      H1C            37.2269747846      -35.4629111423       24.3565675883  MEOH      1313            0.0000000000
     28212      2005  MEOH      LP1A           36.7516208395      -34.8160048252       26.2594089016  MEOH      1313            0.0000000000
     28213      2005  MEOH      LP1B           36.2588053679      -35.2014067742       26.4622569938  MEOH      1313            0.0000000000
     28214      2006  MEOH      C1            -24.1327615982      -26.8795795405       -2.9962070935  MEOH      1314            0.0000000000
     28215      2006  MEOH      DC1           -24.1317029627      -26.8831578549       -2.9840514218  MEOH      1314            0.0000000000
     28216      2006  MEOH      O1            -24.0925654859      -27.4694707132       -1.7021379893  MEOH      1314            0.0000000000
     28217      2006  MEOH      DO1           -24.0979565647      -27.4669642971       -1.6971888291  MEOH      1314            0.0000000000
     28218      2006  MEOH      HO1           -24.8438647602      -28.0789485112       -1.6315248590  MEOH      1314            0.0000000000
     28219      2006  MEOH      HO2           -23.1922658087      -27.8147942854       -1.5967239338  MEOH      1314            0.0000000000
     28220      2006  MEOH      H1A           -23.3162278124      -26.1319563873       -3.0892296608  MEOH      1314            0.0000000000
     28221      2006  MEOH      H1B           -25.1113977892      -26.3780577884       -3.1545363006  MEOH      1314            0.0000000000
     28222      2006  MEOH      H1C           -23.9919114377      -27.6609309858       -3.7733635469  MEOH      1314            0.0000000000
     28223      2006  MEOH      LP1A          -23.8975590830      -27.7600304164       -1.7090344876  MEOH      1314            0.0000000000
     28224      2006  MEOH      LP1B          -24.2713680416      -27.2721255282       -1.4750157226  MEOH      1314            0.0000000000
     28225      2007  MEOH      C1             19.0096905748       -5.3080158649      -19.1769811726  MEOH      1315            0.0000000000
     28226      2007  MEOH      DC1            19.0108581284       -5.3059290401      -19.1806771116  MEOH      1315            0.0000000000
     28227      2007  MEOH      O1             19.0902856639       -3.9406867131      -18.7908407468  MEOH      1315            0.0000000000
     28228      2007  MEOH      DO1            19.0949895003       -3.9408208386      -18.8120008076  MEOH      1315            0.0000000000
     28229      2007  MEOH      HO1            18.7001138200       -3.8555616181      -17.9068613064  MEOH      1315            0.0000000000
     28230      2007  MEOH      HO2            20.0039974603       -3.6699379458      -18.9717436441  MEOH      1315            0.0000000000
     28231      2007  MEOH      H1A            19.2010201990       -5.4477957706      -20.2624191278  MEOH      1315            0.0000000000
     28232      2007  MEOH      H1B            17.9844962974       -5.6825298582      -18.9695276520  MEOH      1315            0.0000000000
     28233      2007  MEOH      H1C            19.7733959965       -5.9032295794      -18.6321916143  MEOH      1315            0.0000000000
     28234      2007  MEOH      LP1A           19.3941000217       -3.8799887604      -18.6280138615  MEOH      1315            0.0000000000
     28235      2007  MEOH      LP1B           18.8050963109       -3.7688296474      -18.8986933401  MEOH      1315            0.0000000000
     28236      2008  MEOH      C1              2.6751928569       -6.8821001711      -35.9141545689  MEOH      1316            0.0000000000
     28237      2008  MEOH      DC1             2.6740038652       -6.8856167619      -35.9042135282  MEOH      1316            0.0000000000
     28238      2008  MEOH      O1              2.9648709946       -8.0673657868      -36.6596661241  MEOH      1316            0.0000000000
     28239      2008  MEOH      DO1             2.9562236554       -8.0697241141      -36.6537266730  MEOH      1316            0.0000000000
     28240      2008  MEOH      HO1             2.8139532578       -8.8364825562      -36.0881915125  MEOH      1316            0.0000000000
     28241      2008  MEOH      HO2             2.4930564783       -7.9770012227      -37.5023554557  MEOH      1316            0.0000000000
     28242      2008  MEOH      H1A             2.9718813529       -5.9924603145      -36.5098372548  MEOH      1316            0.0000000000
     28243      2008  MEOH      H1B             3.2449438432       -6.8754805248      -34.9603930715  MEOH      1316            0.0000000000
     28244      2008  MEOH      H1C             1.5872345447       -6.8230251348      -35.6969499375  MEOH      1316            0.0000000000
     28245      2008  MEOH      LP1A            2.6776174735       -8.1766565848      -36.8271204046  MEOH      1316            0.0000000000
     28246      2008  MEOH      LP1B            3.3032931242       -8.1501271190      -36.6261844263  MEOH      1316            0.0000000000
     28247      2009  MEOH      C1            -35.1708017884       30.5709959378      -20.0292423054  MEOH      1317            0.0000000000
     28248      2009  MEOH      DC1           -35.1795620110       30.5680879876      -20.0205947596  MEOH      1317            0.0000000000
     28249      2009  MEOH      O1            -35.5422981735       29.1913136089      -19.9632178883  MEOH      1317            0.0000000000
     28250      2009  MEOH      DO1           -35.5367725088       29.1844689903      -19.9608223142  MEOH      1317            0.0000000000
     28251      2009  MEOH      HO1           -35.6725355033       28.9707985063      -19.0276371444  MEOH      1317            0.0000000000
     28252      2009  MEOH      HO2           -36.2786868628       29.0932949499      -20.5869358059  MEOH      1317            0.0000000000
     28253      2009  MEOH      H1A           -34.9985060192       30.8544430938      -21.0895690841  MEOH      1317            0.0000000000
     28254      2009  MEOH      H1B           -34.2362414852       30.7483564929      -19.4552551319  MEOH      1317            0.0000000000
     28255      2009  MEOH      H1C           -35.9837651125       31.2075860097      -19.6191633929  MEOH      1317            0.0000000000
     28256      2009  MEOH      LP1A          -35.8900040383       29.1596636259      -19.9876905294  MEOH      1317            0.0000000000
     28257      2009  MEOH      LP1B          -35.2560921169       28.9912989086      -19.9391302813  MEOH      1317            0.0000000000
     28258      2010  MEOH      C1            -15.8432847153        0.0151578489       29.5433428328  MEOH      1318            0.0000000000
     28259      2010  MEOH      DC1           -15.8541507853        0.0155418611       29.5536554782  MEOH      1318            0.0000000000
     28260      2010  MEOH      O1            -16.8363415939        0.0679908332       28.5154463168  MEOH      1318            0.0000000000
     28261      2010  MEOH      DO1           -16.8525977840        0.0633835002       28.5211188705  MEOH      1318            0.0000000000
     28262      2010  MEOH      HO1           -16.3363506688        0.1407813998       27.6874302492  MEOH      1318            0.0000000000
     28263      2010  MEOH      HO2           -17.4270492825       -0.6850240900       28.6733480352  MEOH      1318            0.0000000000
     28264      2010  MEOH      H1A           -16.3302403096        0.0493380489       30.5413543382  MEOH      1318            0.0000000000
     28265      2010  MEOH      H1B           -15.1396022767        0.8704127957       29.4556444747  MEOH      1318            0.0000000000
     28266      2010  MEOH      H1C           -15.2538056915       -0.9220446432       29.4512180841  MEOH      1318            0.0000000000
     28267      2010  MEOH      LP1A          -16.9159628369       -0.2558369784       28.4091636463  MEOH      1318            0.0000000000
     28268      2010  MEOH      LP1B          -16.9312121966        0.3998843881       28.4575996488  MEOH      1318            0.0000000000
     28269      2011  MEOH      C1             15.4179710008      -11.8813546100       13.0296457369  MEOH      1319            0.0000000000
     28270      2011  MEOH      DC1            15.4142927883      -11.8749440720       13.0208657751  MEOH      1319            0.0000000000
     28271      2011  MEOH      O1             14.8268921699      -12.9555845467       13.7545067937  MEOH      1319            0.0000000000
     28272      2011  MEOH      DO1            14.8386217044      -12.9574074224       13.7448236422  MEOH      1319            0.0000000000
     28273      2011  MEOH      HO1            15.5016626945      -13.3170662754       14.3502548100  MEOH      1319            0.0000000000
     28274      2011  MEOH      HO2            14.0161285446      -12.5868504865       14.1386910430  MEOH      1319            0.0000000000
     28275      2011  MEOH      H1A            14.6788738346      -11.4489921503       12.3217480872  MEOH      1319            0.0000000000
     28276      2011  MEOH      H1B            16.3063806701      -12.2257477325       12.4582941479  MEOH      1319            0.0000000000
     28277      2011  MEOH      H1C            15.7183325944      -11.0974316565       13.7573604588  MEOH      1319            0.0000000000
     28278      2011  MEOH      LP1A           14.6778059935      -12.8347654983       14.0472115418  MEOH      1319            0.0000000000
     28279      2011  MEOH      LP1B           14.8667151861      -13.2552475687       13.5781089462  MEOH      1319            0.0000000000
     28280      2012  MEOH      C1            -25.1799361078       29.2045672611      -16.1398037543  MEOH      1320            0.0000000000
     28281      2012  MEOH      DC1           -25.1782799758       29.1915826885      -16.1451843125  MEOH      1320            0.0000000000
     28282      2012  MEOH      O1            -24.4591207641       28.1678676212      -16.8115319184  MEOH      1320            0.0000000000
     28283      2012  MEOH      DO1           -24.4569055361       28.1585149327      -16.8210729028  MEOH      1320            0.0000000000
     28284      2012  MEOH      HO1           -24.0630289138       28.5835014625      -17.5933629468  MEOH      1320            0.0000000000
     28285      2012  MEOH      HO2           -23.8859138609       27.7727937088      -16.1360687811  MEOH      1320            0.0000000000
     28286      2012  MEOH      H1A           -25.6844735048       28.7961117541      -15.2381790461  MEOH      1320            0.0000000000
     28287      2012  MEOH      H1B           -25.9427899929       29.6420499383      -16.8187616742  MEOH      1320            0.0000000000
     28288      2012  MEOH      H1C           -24.4827078018       30.0086809390      -15.8210642305  MEOH      1320            0.0000000000
     28289      2012  MEOH      LP1A          -24.1318426588       28.1506726678      -16.6886768192  MEOH      1320            0.0000000000
     28290      2012  MEOH      LP1B          -24.6689641566       28.0040399601      -17.0387460202  MEOH      1320            0.0000000000
     28291      2013  MEOH      C1            -18.4081048678       16.8283514905       31.2495063677  MEOH      1321            0.0000000000
     28292      2013  MEOH      DC1           -18.3980046567       16.8515432654       31.2600949611  MEOH      1321            0.0000000000
     28293      2013  MEOH      O1            -18.7315852595       15.4567999921       31.0096500535  MEOH      1321            0.0000000000
     28294      2013  MEOH      DO1           -18.7347030791       15.4732873335       31.0222093025  MEOH      1321            0.0000000000
     28295      2013  MEOH      HO1           -18.0203124462       14.8762291826       31.3225853829  MEOH      1321            0.0000000000
     28296      2013  MEOH      HO2           -19.6632321141       15.3297392567       31.2479559690  MEOH      1321            0.0000000000
     28297      2013  MEOH      H1A           -19.1078879962       17.4646026735       30.6665749770  MEOH      1321            0.0000000000
     28298      2013  MEOH      H1B           -17.3726402916       17.0363011054       30.9047005251  MEOH      1321            0.0000000000
     28299      2013  MEOH      H1C           -18.5168401509       17.0594734415       32.3307465280  MEOH      1321            0.0000000000
     28300      2013  MEOH      LP1A          -18.9078323238       15.3259352389       31.2822512066  MEOH      1321            0.0000000000
     28301      2013  MEOH      LP1B          -18.6195024712       15.3611229703       30.6921861090  MEOH      1321            0.0000000000
     28302      2014  MEOH      C1            -25.4811002042       22.0428062489       18.1999019381  MEOH      1322            0.0000000000
     28303      2014  MEOH      DC1           -25.4730724696       22.0630689043       18.2108820731  MEOH      1322            0.0000000000
     28304      2014  MEOH      O1            -25.1193297374       20.7731110438       17.6610677015  MEOH      1322            0.0000000000
     28305      2014  MEOH      DO1           -25.1114619912       20.7916426345       17.6651549993  MEOH      1322            0.0000000000
     28306      2014  MEOH      HO1           -24.5887256201       20.2784827658       18.3050414101  MEOH      1322            0.0000000000
     28307      2014  MEOH      HO2           -25.9462778761       20.3913146491       17.3274687054  MEOH      1322            0.0000000000
     28308      2014  MEOH      H1A           -26.0163776749       22.6312163391       17.4242908270  MEOH      1322            0.0000000000
     28309      2014  MEOH      H1B           -24.5670162235       22.5963130895       18.5038783413  MEOH      1322            0.0000000000
     28310      2014  MEOH      H1C           -26.1636486864       21.9003565803       19.0648624360  MEOH      1322            0.0000000000
     28311      2014  MEOH      LP1A          -25.3660626679       20.5365023284       17.7361621540  MEOH      1322            0.0000000000
     28312      2014  MEOH      LP1B          -24.8174791682       20.7990509228       17.4858154360  MEOH      1322            0.0000000000
     28313      2015  MEOH      C1             -8.6528869312       17.8738302000      -15.7648948503  MEOH      1323            0.0000000000
     28314      2015  MEOH      DC1            -8.6600514475       17.8825788400      -15.7684018459  MEOH      1323            0.0000000000
     28315      2015  MEOH      O1             -8.0117577804       16.5998483765      -15.8087102479  MEOH      1323            0.0000000000
     28316      2015  MEOH      DO1            -8.0106141758       16.6168612262      -15.8099127983  MEOH      1323            0.0000000000
     28317      2015  MEOH      HO1            -7.4192323871       16.5245245082      -15.0444197440  MEOH      1323            0.0000000000
     28318      2015  MEOH      HO2            -8.7152292098       15.9436151394      -15.9327501058  MEOH      1323            0.0000000000
     28319      2015  MEOH      H1A            -9.2762226549       18.0020641237      -16.6755702249  MEOH      1323            0.0000000000
     28320      2015  MEOH      H1B            -7.8811991291       18.6719398712      -15.7220009199  MEOH      1323            0.0000000000
     28321      2015  MEOH      H1C            -9.2998223280       17.9576484057      -14.8655783873  MEOH      1323            0.0000000000
     28322      2015  MEOH      LP1A           -8.2057732103       16.3623357326      -15.6400515484  MEOH      1323            0.0000000000
     28323      2015  MEOH      LP1B           -7.7158293333       16.6210855695      -15.9943855986  MEOH      1323            0.0000000000
     28324      2016  MEOH      C1             -5.6422592667      -19.5828294606       19.0407229785  MEOH      1324            0.0000000000
     28325      2016  MEOH      DC1            -5.6345590576      -19.5800558042       19.0635310543  MEOH      1324            0.0000000000
     28326      2016  MEOH      O1             -6.4121152770      -19.7319619639       17.8488260227  MEOH      1324            0.0000000000
     28327      2016  MEOH      DO1            -6.4127668592      -19.7293410890       17.8671144108  MEOH      1324            0.0000000000
     28328      2016  MEOH      HO1            -6.8822876022      -20.5802661949       17.8635880095  MEOH      1324            0.0000000000
     28329      2016  MEOH      HO2            -6.8649200358      -18.8875663136       17.6976180977  MEOH      1324            0.0000000000
     28330      2016  MEOH      H1A            -4.9523573763      -18.7180745700       18.9379836931  MEOH      1324            0.0000000000
     28331      2016  MEOH      H1B            -5.0579720331      -20.5054315340       19.2450140574  MEOH      1324            0.0000000000
     28332      2016  MEOH      H1C            -6.3373984763      -19.3645540527       19.8794472039  MEOH      1324            0.0000000000
     28333      2016  MEOH      LP1A           -6.7309232721      -19.5948730665       17.8943023508  MEOH      1324            0.0000000000
     28334      2016  MEOH      LP1B           -6.2188184314      -19.8838338573       17.5996849833  MEOH      1324            0.0000000000
     28335      2017  MEOH      C1             -5.9003030475       -9.1034588930        3.4534732384  MEOH      1325            0.0000000000
     28336      2017  MEOH      DC1            -5.8983881756       -9.1041279800        3.4428482633  MEOH      1325            0.0000000000
     28337      2017  MEOH      O1             -7.2877113445       -9.3706231667        3.2799853585  MEOH      1325            0.0000000000
     28338      2017  MEOH      DO1            -7.2859243555       -9.3737372749        3.2704705893  MEOH      1325            0.0000000000
     28339      2017  MEOH      HO1            -7.4999014538      -10.1509692456        3.8156488308  MEOH      1325            0.0000000000
     28340      2017  MEOH      HO2            -7.7355264916       -8.5318889499        3.4720439632  MEOH      1325            0.0000000000
     28341      2017  MEOH      H1A            -5.6097791128       -8.2189369728        2.8472242659  MEOH      1325            0.0000000000
     28342      2017  MEOH      H1B            -5.3082049808       -9.9831478178        3.1219792339  MEOH      1325            0.0000000000
     28343      2017  MEOH      H1C            -5.6871080786       -8.8930073493        4.5233232532  MEOH      1325            0.0000000000
     28344      2017  MEOH      LP1A           -7.4742619695       -9.1940597383        3.5177335868  MEOH      1325            0.0000000000
     28345      2017  MEOH      LP1B           -7.3353520911       -9.5831182880        3.0059850252  MEOH      1325            0.0000000000
     28346      2018  MEOH      C1             10.6864115197      -33.5521035209        9.4914373583  MEOH      1326            0.0000000000
     28347      2018  MEOH      DC1            10.6899976110      -33.5345709806        9.4880056965  MEOH      1326            0.0000000000
     28348      2018  MEOH      O1             10.4150684978      -33.9583094144       10.8342025267  MEOH      1326            0.0000000000
     28349      2018  MEOH      DO1            10.4057540637      -33.9251081142       10.8320816566  MEOH      1326            0.0000000000
     28350      2018  MEOH      HO1            10.5482916830      -33.2388767337       11.4710448941  MEOH      1326            0.0000000000
     28351      2018  MEOH      HO2             9.6300812007      -34.5278643151       10.8168197853  MEOH      1326            0.0000000000
     28352      2018  MEOH      H1A            10.7285332963      -34.4486543267        8.8366523478  MEOH      1326            0.0000000000
     28353      2018  MEOH      H1B            11.6797828425      -33.0574214738        9.4382952101  MEOH      1326            0.0000000000
     28354      2018  MEOH      H1C             9.8839945425      -32.8809267092        9.1173121357  MEOH      1326            0.0000000000
     28355      2018  MEOH      LP1A           10.0768871508      -33.9074025648       10.9086462587  MEOH      1326            0.0000000000
     28356      2018  MEOH      LP1B           10.7051844488      -34.0878244618       10.9810309555  MEOH      1326            0.0000000000
     28357      2019  MEOH      C1             16.9058899613      -26.8246692477       -5.3960638190  MEOH      1327            0.0000000000
     28358      2019  MEOH      DC1            16.9081748810      -26.8199004552       -5.4097682273  MEOH      1327            0.0000000000
     28359      2019  MEOH      O1             16.0168897847      -26.7480767580       -4.2848832785  MEOH      1327            0.0000000000
     28360      2019  MEOH      DO1            16.0143019315      -26.7416631793       -4.3047842209  MEOH      1327            0.0000000000
     28361      2019  MEOH      HO1            15.6790380726      -27.6389559672       -4.1029754539  MEOH      1327            0.0000000000
     28362      2019  MEOH      HO2            16.5253849028      -26.3049294083       -3.5877798849  MEOH      1327            0.0000000000
     28363      2019  MEOH      H1A            17.4175675132      -25.8442550188       -5.5023418656  MEOH      1327            0.0000000000
     28364      2019  MEOH      H1B            16.3444689698      -27.0577801443       -6.3260029461  MEOH      1327            0.0000000000
     28365      2019  MEOH      H1C            17.6926834917      -27.5896103724       -5.2224492529  MEOH      1327            0.0000000000
     28366      2019  MEOH      LP1A           16.1946745357      -26.7895348009       -3.9862634315  MEOH      1327            0.0000000000
     28367      2019  MEOH      LP1B           15.6915967445      -26.6824414274       -4.3961327341  MEOH      1327            0.0000000000
     28368      2020  MEOH      C1            -16.9857733453        1.7858224196       23.4846923127  MEOH      1328            0.0000000000
     28369      2020  MEOH      DC1           -16.9985151052        1.8009624823       23.4944778893  MEOH      1328            0.0000000000
     28370      2020  MEOH      O1            -16.8934934863        0.7139462431       22.5488925388  MEOH      1328            0.0000000000
     28371      2020  MEOH      DO1           -16.9039505017        0.7334019243       22.5563997317  MEOH      1328            0.0000000000
     28372      2020  MEOH      HO1           -16.9840518852       -0.1399874278       22.9999983602  MEOH      1328            0.0000000000
     28373      2020  MEOH      HO2           -17.4635217751        0.9447195545       21.7987515986  MEOH      1328            0.0000000000
     28374      2020  MEOH      H1A           -16.6291911224        2.7142628336       22.9895473683  MEOH      1328            0.0000000000
     28375      2020  MEOH      H1B           -16.3434250326        1.5792773527       24.3673297141  MEOH      1328            0.0000000000
     28376      2020  MEOH      H1C           -18.0417812020        1.9287980346       23.7988998567  MEOH      1328            0.0000000000
     28377      2020  MEOH      LP1A          -17.2106486793        0.6386855816       22.4214232627  MEOH      1328            0.0000000000
     28378      2020  MEOH      LP1B          -16.5594215913        0.6167942852       22.5107157645  MEOH      1328            0.0000000000
     28379      2021  MEOH      C1             31.0305838175       -3.6940439839      -18.5236863950  MEOH      1329            0.0000000000
     28380      2021  MEOH      DC1            31.0285497066       -3.6802760851      -18.5052630244  MEOH      1329            0.0000000000
     28381      2021  MEOH      O1             29.8049216414       -3.6270085454      -19.2569477108  MEOH      1329            0.0000000000
     28382      2021  MEOH      DO1            29.7990802905       -3.6018452049      -19.2443147019  MEOH      1329            0.0000000000
     28383      2021  MEOH      HO1            29.2378899697       -4.3637613701      -18.9802342153  MEOH      1329            0.0000000000
     28384      2021  MEOH      HO2            29.5302154795       -2.6972223539      -19.2875117968  MEOH      1329            0.0000000000
     28385      2021  MEOH      H1A            31.8266752229       -3.1602378458      -19.0854786018  MEOH      1329            0.0000000000
     28386      2021  MEOH      H1B            31.3565280201       -4.7502803586      -18.4121243129  MEOH      1329            0.0000000000
     28387      2021  MEOH      H1C            30.9009851208       -3.2457253502      -17.5154525032  MEOH      1329            0.0000000000
     28388      2021  MEOH      LP1A           29.5736727945       -3.4278289932      -19.0856249837  MEOH      1329            0.0000000000
     28389      2021  MEOH      LP1B           29.8347095060       -3.8055815075      -19.5564879924  MEOH      1329            0.0000000000
     28390      2022  MEOH      C1            -31.3413897431       -5.2916514894      -22.3405890505  MEOH      1330            0.0000000000
     28391      2022  MEOH      DC1           -31.3533794873       -5.3024652587      -22.3390543373  MEOH      1330            0.0000000000
     28392      2022  MEOH      O1            -32.5730758955       -4.9475824431      -21.7090313794  MEOH      1330            0.0000000000
     28393      2022  MEOH      DO1           -32.5798175951       -4.9631386159      -21.7099751666  MEOH      1330            0.0000000000
     28394      2022  MEOH      HO1           -33.1950492242       -4.5918754116      -22.3628828050  MEOH      1330            0.0000000000
     28395      2022  MEOH      HO2           -32.7914679024       -5.6680368189      -21.0973530133  MEOH      1330            0.0000000000
     28396      2022  MEOH      H1A           -30.5649929485       -5.4444790559      -21.5607347352  MEOH      1330            0.0000000000
     28397      2022  MEOH      H1B           -31.0119025493       -4.4710254170      -23.0131453964  MEOH      1330            0.0000000000
     28398      2022  MEOH      H1C           -31.4537107758       -6.2289810325      -22.9263520703  MEOH      1330            0.0000000000
     28399      2022  MEOH      LP1A          -32.7881477630       -5.2237025657      -21.7077010877  MEOH      1330            0.0000000000
     28400      2022  MEOH      LP1B          -32.5605423617       -4.6171768467      -21.5942487482  MEOH      1330            0.0000000000
     28401      2023  MEOH      C1             18.0921848816        1.3746130595        0.9368821422  MEOH      1331            0.0000000000
     28402      2023  MEOH      DC1            18.1033033035        1.3693607692        0.9287361625  MEOH      1331            0.0000000000
     28403      2023  MEOH      O1             18.1484365154        2.8000535124        0.9816526401  MEOH      1331            0.0000000000
     28404      2023  MEOH      DO1            18.1616588071        2.7945368388        0.9899693708  MEOH      1331            0.0000000000
     28405      2023  MEOH      HO1            18.7228919758        3.0948057418        0.2577589689  MEOH      1331            0.0000000000
     28406      2023  MEOH      HO2            17.2215282769        3.0852455348        0.9614875861  MEOH      1331            0.0000000000
     28407      2023  MEOH      H1A            17.3242585631        1.0250340558        1.6596578276  MEOH      1331            0.0000000000
     28408      2023  MEOH      H1B            19.0723962749        0.9358545223        1.2214828666  MEOH      1331            0.0000000000
     28409      2023  MEOH      H1C            17.7901972344        1.0339789079       -0.0765737452  MEOH      1331            0.0000000000
     28410      2023  MEOH      LP1A           17.8891460369        2.9361653897        0.7899705997  MEOH      1331            0.0000000000
     28411      2023  MEOH      LP1B           18.4101719626        2.9030416925        1.1899504807  MEOH      1331            0.0000000000
     28412      2024  MEOH      C1             34.8253848767      -21.8618231408        0.1241566211  MEOH      1332            0.0000000000
     28413      2024  MEOH      DC1            34.8486742459      -21.8358811281        0.1118653943  MEOH      1332            0.0000000000
     28414      2024  MEOH      O1             34.0615593832      -20.8295715640        0.7426234481  MEOH      1332            0.0000000000
     28415      2024  MEOH      DO1            34.0737105205      -20.8035448634        0.7254301822  MEOH      1332            0.0000000000
     28416      2024  MEOH      HO1            33.2651145655      -21.2814604549        1.0625798244  MEOH      1332            0.0000000000
     28417      2024  MEOH      HO2            34.6589966823      -20.4248523889        1.3908294835  MEOH      1332            0.0000000000
     28418      2024  MEOH      H1A            35.7865718871      -21.4751098496       -0.2769585271  MEOH      1332            0.0000000000
     28419      2024  MEOH      H1B            34.2278384696      -22.2992626495       -0.7040377810  MEOH      1332            0.0000000000
     28420      2024  MEOH      H1C            35.0380004073      -22.6553553647        0.8721019721  MEOH      1332            0.0000000000
     28421      2024  MEOH      LP1A           34.1511107244      -20.7999620018        1.0796751224  MEOH      1332            0.0000000000
     28422      2024  MEOH      LP1B           33.8518689895      -20.6781637054        0.5068150531  MEOH      1332            0.0000000000
     28423      2025  MEOH      C1            -12.9208098075      -28.9000173397       16.8611091295  MEOH      1333            0.0000000000
     28424      2025  MEOH      DC1           -12.9175868063      -28.9182414778       16.8551271324  MEOH      1333            0.0000000000
     28425      2025  MEOH      O1            -12.3888227321      -29.0528178415       18.1788043969  MEOH      1333            0.0000000000
     28426      2025  MEOH      DO1           -12.3824949824      -29.0750926677       18.1782494553  MEOH      1333            0.0000000000
     28427      2025  MEOH      HO1           -11.4824872736      -28.7090506632       18.1430250199  MEOH      1333            0.0000000000
     28428      2025  MEOH      HO2           -13.0230601575      -28.5958219350       18.7530844949  MEOH      1333            0.0000000000
     28429      2025  MEOH      H1A           -13.9844899502      -29.2206359466       16.8506562116  MEOH      1333            0.0000000000
     28430      2025  MEOH      H1B           -12.3362552627      -29.5199356877       16.1481447363  MEOH      1333            0.0000000000
     28431      2025  MEOH      H1C           -12.8737829652      -27.8350532068       16.5481221118  MEOH      1333            0.0000000000
     28432      2025  MEOH      LP1A          -12.4596684822      -28.7684899317       18.3702163072  MEOH      1333            0.0000000000
     28433      2025  MEOH      LP1B          -12.2387950638      -29.3673269352       18.2116027008  MEOH      1333            0.0000000000
     28434      2026  MEOH      C1              3.6267274749       34.2574170396      -29.7633774700  MEOH      1334            0.0000000000
     28435      2026  MEOH      DC1             3.6301342363       34.2547185120      -29.7618747715  MEOH      1334            0.0000000000
     28436      2026  MEOH      O1              4.7847321999       33.4632083043      -29.5081601798  MEOH      1334            0.0000000000
     28437      2026  MEOH      DO1             4.7868234318       33.4633764630      -29.5003266974  MEOH      1334            0.0000000000
     28438      2026  MEOH      HO1             4.8325311302       32.8022292818      -30.2164835485  MEOH      1334            0.0000000000
     28439      2026  MEOH      HO2             5.5091746531       34.0963239834      -29.3846787285  MEOH      1334            0.0000000000
     28440      2026  MEOH      H1A             3.5262483161       35.0300613812      -28.9713890481  MEOH      1334            0.0000000000
     28441      2026  MEOH      H1B             2.7221678315       33.6124810241      -29.7756407246  MEOH      1334            0.0000000000
     28442      2026  MEOH      H1C             3.7108939776       34.7837822906      -30.7381475061  MEOH      1334            0.0000000000
     28443      2026  MEOH      LP1A            5.0643884709       33.6062398038      -29.6625439880  MEOH      1334            0.0000000000
     28444      2026  MEOH      LP1B            4.7015501350       33.1931915612      -29.3015888783  MEOH      1334            0.0000000000
     28445      2027  MEOH      C1             -7.8250178809       20.4857772686       21.5771095918  MEOH      1335            0.0000000000
     28446      2027  MEOH      DC1            -7.8413166267       20.4885149950       21.5713360090  MEOH      1335            0.0000000000
     28447      2027  MEOH      O1             -6.6913096353       19.7108132737       21.2952475733  MEOH      1335            0.0000000000
     28448      2027  MEOH      DO1            -6.7072973701       19.7121927693       21.2870915671  MEOH      1335            0.0000000000
     28449      2027  MEOH      HO1            -5.9065009555       20.2209104386       21.5497592988  MEOH      1335            0.0000000000
     28450      2027  MEOH      HO2            -6.8379897859       18.8765872331       21.7679545092  MEOH      1335            0.0000000000
     28451      2027  MEOH      H1A            -8.7122063493       19.8603345423       21.3403839736  MEOH      1335            0.0000000000
     28452      2027  MEOH      H1B            -7.8072764210       21.4027283335       20.9500474058  MEOH      1335            0.0000000000
     28453      2027  MEOH      H1C            -7.8494221121       20.7483348671       22.6563634744  MEOH      1335            0.0000000000
     28454      2027  MEOH      LP1A           -6.6114728191       19.5107308802       21.5710973850  MEOH      1335            0.0000000000
     28455      2027  MEOH      LP1B           -6.5842690730       19.7701210518       20.9673376688  MEOH      1335            0.0000000000
     28456      2028  MEOH      C1            -31.2425236417       28.1678195274      -35.2612511300  MEOH      1336            0.0000000000
     28457      2028  MEOH      DC1           -31.2439637353       28.1645272612      -35.2608691663  MEOH      1336            0.0000000000
     28458      2028  MEOH      O1            -30.2301678906       27.1590312568      -35.2233744288  MEOH      1336            0.0000000000
     28459      2028  MEOH      DO1           -30.2292144996       27.1549646683      -35.2230074125  MEOH      1336            0.0000000000
     28460      2028  MEOH      HO1           -29.8050442652       27.2196377081      -34.3536062061  MEOH      1336            0.0000000000
     28461      2028  MEOH      HO2           -30.6592218506       26.3368729366      -35.5077481211  MEOH      1336            0.0000000000
     28462      2028  MEOH      H1A           -31.6940409217       28.2081707125      -36.2755612048  MEOH      1336            0.0000000000
     28463      2028  MEOH      H1B           -30.7980389587       29.1583940316      -35.0256316905  MEOH      1336            0.0000000000
     28464      2028  MEOH      H1C           -32.0373572589       27.9358081800      -34.5204871619  MEOH      1336            0.0000000000
     28465      2028  MEOH      LP1A          -30.3647694956       26.8587825861      -35.1040716891  MEOH      1336            0.0000000000
     28466      2028  MEOH      LP1B          -29.9288298331       27.2871428151      -35.3469980661  MEOH      1336            0.0000000000
     28467      2029  MEOH      C1             25.4524778362      -21.3653920439      -31.7066164008  MEOH      1337            0.0000000000
     28468      2029  MEOH      DC1            25.4541215105      -21.3651260386      -31.7087522746  MEOH      1337            0.0000000000
     28469      2029  MEOH      O1             26.7923110950      -21.3105651091      -31.2214789649  MEOH      1337            0.0000000000
     28470      2029  MEOH      DO1            26.7954685380      -21.3003409705      -31.2235906483  MEOH      1337            0.0000000000
     28471      2029  MEOH      HO1            27.3107999897      -20.8080352003      -31.8691926035  MEOH      1337            0.0000000000
     28472      2029  MEOH      HO2            26.7233064288      -21.0108277248      -30.3015355664  MEOH      1337            0.0000000000
     28473      2029  MEOH      H1A            24.8325141733      -21.9721872716      -31.0125230288  MEOH      1337            0.0000000000
     28474      2029  MEOH      H1B            25.4319833839      -21.8115549236      -32.7238870935  MEOH      1337            0.0000000000
     28475      2029  MEOH      H1C            25.0186428035      -20.3431432336      -31.7400160505  MEOH      1337            0.0000000000
     28476      2029  MEOH      LP1A           26.8337443470      -21.0305032843      -31.0156910646  MEOH      1337            0.0000000000
     28477      2029  MEOH      LP1B           26.9727306171      -21.5875101369      -31.3365886849  MEOH      1337            0.0000000000
     28478      2030  MEOH      C1             11.5770373847       34.6951167557        6.7865671900  MEOH      1338            0.0000000000
     28479      2030  MEOH      DC1            11.6030465236       34.6977412737        6.7838268701  MEOH      1338            0.0000000000
     28480      2030  MEOH      O1             12.9387836174       34.9040394099        7.1734235371  MEOH      1338            0.0000000000
     28481      2030  MEOH      DO1            12.9573245768       34.9052339167        7.1703302515  MEOH      1338            0.0000000000
     28482      2030  MEOH      HO1            13.2793359013       35.6188937735        6.6131491567  MEOH      1338            0.0000000000
     28483      2030  MEOH      HO2            12.9174995711       35.0279064953        8.1352467717  MEOH      1338            0.0000000000
     28484      2030  MEOH      H1A            11.1412551951       33.8602750093        7.3760195986  MEOH      1338            0.0000000000
     28485      2030  MEOH      H1B            11.5147778857       34.4304235329        5.7093567868  MEOH      1338            0.0000000000
     28486      2030  MEOH      H1C            10.9753652340       35.6091231533        6.9786711442  MEOH      1338            0.0000000000
     28487      2030  MEOH      LP1A           12.9549253072       35.1385255031        7.4327606111  MEOH      1338            0.0000000000
     28488      2030  MEOH      LP1B           13.1495246422       34.6961796419        6.9866548639  MEOH      1338            0.0000000000
     28489      2031  MEOH      C1              7.4234493157       30.6566518191       20.9236218813  MEOH      1339            0.0000000000
     28490      2031  MEOH      DC1             7.4109882891       30.6591037200       20.9216066700  MEOH      1339            0.0000000000
     28491      2031  MEOH      O1              6.7084527282       29.8177411390       20.0107094953  MEOH      1339            0.0000000000
     28492      2031  MEOH      DO1             6.6995684008       29.8183277243       20.0122009458  MEOH      1339            0.0000000000
     28493      2031  MEOH      HO1             5.7611618192       29.8993139813       20.2027662730  MEOH      1339            0.0000000000
     28494      2031  MEOH      HO2             7.0472191492       30.0346034638       19.1280385238  MEOH      1339            0.0000000000
     28495      2031  MEOH      H1A             8.5157722333       30.5177337222       20.7757929055  MEOH      1339            0.0000000000
     28496      2031  MEOH      H1B             7.1699718334       30.3922090167       21.9724975511  MEOH      1339            0.0000000000
     28497      2031  MEOH      H1C             7.1793793463       31.7255663584       20.7442547752  MEOH      1339            0.0000000000
     28498      2031  MEOH      LP1A            6.6320035451       29.9958271364       19.7192632739  MEOH      1339            0.0000000000
     28499      2031  MEOH      LP1B            6.6752138656       29.4960944718       20.1446445523  MEOH      1339            0.0000000000
     28500      2032  MEOH      C1             31.8108061870      -36.2918483199      -12.2700623819  MEOH      1340            0.0000000000
     28501      2032  MEOH      DC1            31.8039283440      -36.3142792808      -12.2915086313  MEOH      1340            0.0000000000
     28502      2032  MEOH      O1             31.9097771363      -34.9299120492      -11.8880599091  MEOH      1340            0.0000000000
     28503      2032  MEOH      DO1            31.8839534708      -34.9360185768      -11.9207074401  MEOH      1340            0.0000000000
     28504      2032  MEOH      HO1            32.6272742853      -34.5134047330      -12.3906725798  MEOH      1340            0.0000000000
     28505      2032  MEOH      HO2            31.0092997375      -34.5749646597      -11.8243982596  MEOH      1340            0.0000000000
     28506      2032  MEOH      H1A            31.1047360428      -36.8212276315      -11.5951227563  MEOH      1340            0.0000000000
     28507      2032  MEOH      H1B            32.7960397654      -36.8000629236      -12.1968933082  MEOH      1340            0.0000000000
     28508      2032  MEOH      H1C            31.4178580685      -36.3151237139      -13.3089902101  MEOH      1340            0.0000000000
     28509      2032  MEOH      LP1A           31.7005441220      -34.7337972284      -12.0887101590  MEOH      1340            0.0000000000
     28510      2032  MEOH      LP1B           32.1270184995      -34.8974999818      -11.6155610137  MEOH      1340            0.0000000000
     28511      2033  MEOH      C1             35.7474827538      -23.8480345474       -2.6076265052  MEOH      1341            0.0000000000
     28512      2033  MEOH      DC1            35.7646126531      -23.8389837497       -2.6274404871  MEOH      1341            0.0000000000
     28513      2033  MEOH      O1             37.1757168586      -23.9363570449       -2.6195044887  MEOH      1341            0.0000000000
     28514      2033  MEOH      DO1            37.1886082965      -23.9295952613       -2.6322129288  MEOH      1341            0.0000000000
     28515      2033  MEOH      HO1            37.4750435339      -23.8818648258       -3.5405550520  MEOH      1341            0.0000000000
     28516      2033  MEOH      HO2            37.4966371376      -23.3189301706       -1.9437129311  MEOH      1341            0.0000000000
     28517      2033  MEOH      H1A            35.3713351186      -24.0807212970       -1.5884646766  MEOH      1341            0.0000000000
     28518      2033  MEOH      H1B            35.2998087672      -24.5838772433       -3.3093704257  MEOH      1341            0.0000000000
     28519      2033  MEOH      H1C            35.4249879625      -22.8205770023       -2.8808463856  MEOH      1341            0.0000000000
     28520      2033  MEOH      LP1A           37.3156597635      -23.6170270774       -2.5887741250  MEOH      1341            0.0000000000
     28521      2033  MEOH      LP1B           37.2747621226      -24.2713756296       -2.6407785007  MEOH      1341            0.0000000000
     28522      2034  MEOH      C1             15.3865701846      -21.6509300336       14.5084462797  MEOH      1342            0.0000000000
     28523      2034  MEOH      DC1            15.3774703855      -21.6462177577       14.5121529559  MEOH      1342            0.0000000000
     28524      2034  MEOH      O1             16.0138480546      -22.8467198256       14.9497557468  MEOH      1342            0.0000000000
     28525      2034  MEOH      DO1            15.9982723181      -22.8410697892       14.9540018650  MEOH      1342            0.0000000000
     28526      2034  MEOH      HO1            16.5717876293      -23.1804786420       14.2298887567  MEOH      1342            0.0000000000
     28527      2034  MEOH      HO2            16.4201001678      -22.6252733018       15.8022935227  MEOH      1342            0.0000000000
     28528      2034  MEOH      H1A            14.7045972798      -21.2708629982       15.2988784436  MEOH      1342            0.0000000000
     28529      2034  MEOH      H1B            14.7976977282      -21.8517897754       13.5880085598  MEOH      1342            0.0000000000
     28530      2034  MEOH      H1C            16.1524756552      -20.8726352528       14.3035876827  MEOH      1342            0.0000000000
     28531      2034  MEOH      LP1A           16.3173688221      -22.7716645876       15.1070511853  MEOH      1342            0.0000000000
     28532      2034  MEOH      LP1B           15.8107597623      -23.1223260445       14.8769796681  MEOH      1342            0.0000000000
     28533      2035  MEOH      C1             20.5274836026      -14.4909623235        7.2596298698  MEOH      1343            0.0000000000
     28534      2035  MEOH      DC1            20.5109506524      -14.4835261487        7.2526363901  MEOH      1343            0.0000000000
     28535      2035  MEOH      O1             21.8308727928      -14.5296072175        7.8302588563  MEOH      1343            0.0000000000
     28536      2035  MEOH      DO1            21.8177309359      -14.5159658779        7.8272359155  MEOH      1343            0.0000000000
     28537      2035  MEOH      HO1            22.0523785057      -15.4516715479        8.0342995134  MEOH      1343            0.0000000000
     28538      2035  MEOH      HO2            22.3961682822      -13.9981523979        7.2481104345  MEOH      1343            0.0000000000
     28539      2035  MEOH      H1A            20.1984797398      -13.4317916254        7.1945538189  MEOH      1343            0.0000000000
     28540      2035  MEOH      H1B            19.8101425852      -15.0582193408        7.8904724347  MEOH      1343            0.0000000000
     28541      2035  MEOH      H1C            20.5624709388      -14.9296810470        6.2395206757  MEOH      1343            0.0000000000
     28542      2035  MEOH      LP1A           22.0711358090      -14.5622246620        7.5778508823  MEOH      1343            0.0000000000
     28543      2035  MEOH      LP1B           21.8106205370      -14.4920798172        8.1776513438  MEOH      1343            0.0000000000
     28544      2036  MEOH      C1             28.4242954585      -10.4905155172       21.8902076012  MEOH      1344            0.0000000000
     28545      2036  MEOH      DC1            28.4472371906      -10.5165998476       21.9077872734  MEOH      1344            0.0000000000
     28546      2036  MEOH      O1             27.4014249192      -10.7441775725       22.8574115963  MEOH      1344            0.0000000000
     28547      2036  MEOH      DO1            27.4219552508      -10.7814475025       22.8713640470  MEOH      1344            0.0000000000
     28548      2036  MEOH      HO1            26.7423723824      -10.0472816465       22.7128923119  MEOH      1344            0.0000000000
     28549      2036  MEOH      HO2            27.1478196157      -11.6726808091       22.7371365381  MEOH      1344            0.0000000000
     28550      2036  MEOH      H1A            29.2286772400      -11.2523801156       21.9729921634  MEOH      1344            0.0000000000
     28551      2036  MEOH      H1B            28.8566626003       -9.4803142751       22.0541377853  MEOH      1344            0.0000000000
     28552      2036  MEOH      H1C            27.9892273902      -10.5216559644       20.8684116089  MEOH      1344            0.0000000000
     28553      2036  MEOH      LP1A           27.1624237310      -10.9625606581       22.7244181380  MEOH      1344            0.0000000000
     28554      2036  MEOH      LP1B           27.4751075455      -10.5773298816       23.1561300567  MEOH      1344            0.0000000000
     28555      2037  MEOH      C1            -17.2649620797       14.7932011317       11.8353082929  MEOH      1345            0.0000000000
     28556      2037  MEOH      DC1           -17.2675185140       14.7965094707       11.8253752306  MEOH      1345            0.0000000000
     28557      2037  MEOH      O1            -17.2660180123       14.8038477202       13.2577351705  MEOH      1345            0.0000000000
     28558      2037  MEOH      DO1           -17.2745027512       14.8157739600       13.2490348737  MEOH      1345            0.0000000000
     28559      2037  MEOH      HO1           -17.9903979967       15.3756501874       13.5564249370  MEOH      1345            0.0000000000
     28560      2037  MEOH      HO2           -17.2647749254       13.8694266950       13.5180346193  MEOH      1345            0.0000000000
     28561      2037  MEOH      H1A           -16.4577295349       14.1265959784       11.4633752504  MEOH      1345            0.0000000000
     28562      2037  MEOH      H1B           -17.0874947532       15.8238048789       11.4602319460  MEOH      1345            0.0000000000
     28563      2037  MEOH      H1C           -18.2409013696       14.4177529358       11.4599389347  MEOH      1345            0.0000000000
     28564      2037  MEOH      LP1A          -17.4648872070       14.5427259081       13.3792524230  MEOH      1345            0.0000000000
     28565      2037  MEOH      LP1B          -17.0583031288       15.0596647450       13.3756850624  MEOH      1345            0.0000000000
     28566      2038  MEOH      C1            -29.7487557570        3.9219077568       30.1540387174  MEOH      1346            0.0000000000
     28567      2038  MEOH      DC1           -29.7550389830        3.9196636767       30.1534737957  MEOH      1346            0.0000000000
     28568      2038  MEOH      O1            -31.1257336106        3.6167651152       30.3670239941  MEOH      1346            0.0000000000
     28569      2038  MEOH      DO1           -31.1330081329        3.6170458121       30.3670483204  MEOH      1346            0.0000000000
     28570      2038  MEOH      HO1           -31.6304952180        4.3758890639       30.0355929276  MEOH      1346            0.0000000000
     28571      2038  MEOH      HO2           -31.2590126110        2.7354757958       29.9843154320  MEOH      1346            0.0000000000
     28572      2038  MEOH      H1A           -29.1163789957        3.0922094165       30.5361660469  MEOH      1346            0.0000000000
     28573      2038  MEOH      H1B           -29.4657699375        4.8554160246       30.6858303506  MEOH      1346            0.0000000000
     28574      2038  MEOH      H1C           -29.5693101899        4.0589275594       29.0662217004  MEOH      1346            0.0000000000
     28575      2038  MEOH      LP1A          -31.2548291652        3.4463364341       30.0899167903  MEOH      1346            0.0000000000
     28576      2038  MEOH      LP1B          -31.2248123363        3.7258792450       30.6844787355  MEOH      1346            0.0000000000
     28577      2039  MEOH      C1              9.1049115015      -15.6716153997      -27.0038485695  MEOH      1347            0.0000000000
     28578      2039  MEOH      DC1             9.0945710938      -15.6754401817      -26.9986769691  MEOH      1347            0.0000000000
     28579      2039  MEOH      O1             10.5161372699      -15.4645844444      -27.0583287163  MEOH      1347            0.0000000000
     28580      2039  MEOH      DO1            10.5078453138      -15.4635847592      -27.0449456031  MEOH      1347            0.0000000000
     28581      2039  MEOH      HO1            10.9446109787      -16.2805459673      -26.7558108261  MEOH      1347            0.0000000000
     28582      2039  MEOH      HO2            10.6943009978      -15.1679306089      -27.9645043001  MEOH      1347            0.0000000000
     28583      2039  MEOH      H1A             8.5928901726      -14.8017768102      -27.4681071057  MEOH      1347            0.0000000000
     28584      2039  MEOH      H1B             8.7737330253      -15.7847304656      -25.9494071063  MEOH      1347            0.0000000000
     28585      2039  MEOH      H1C             8.8331063131      -16.5870661531      -27.5716450627  MEOH      1347            0.0000000000
     28586      2039  MEOH      LP1A           10.6381628793      -15.5541008011      -27.3739179629  MEOH      1347            0.0000000000
     28587      2039  MEOH      LP1B           10.6291032031      -15.3296809444      -26.7557733600  MEOH      1347            0.0000000000
     28588      2040  MEOH      C1             30.2032593381       31.7800236345       -9.6000922092  MEOH      1348            0.0000000000
     28589      2040  MEOH      DC1            30.2063512218       31.7780419335       -9.5955997000  MEOH      1348            0.0000000000
     28590      2040  MEOH      O1             30.6513458827       33.1325580161       -9.6737063293  MEOH      1348            0.0000000000
     28591      2040  MEOH      DO1            30.6465083757       33.1338045333       -9.6767531303  MEOH      1348            0.0000000000
     28592      2040  MEOH      HO1            31.3932885126       33.1583481139      -10.2980107466  MEOH      1348            0.0000000000
     28593      2040  MEOH      HO2            29.8551606502       33.6654853925       -9.8252895971  MEOH      1348            0.0000000000
     28594      2040  MEOH      H1A            29.4378707745       31.6765402935       -8.8014730600  MEOH      1348            0.0000000000
     28595      2040  MEOH      H1B            31.0577554450       31.1109262951       -9.3624661298  MEOH      1348            0.0000000000
     28596      2040  MEOH      H1C            29.7449871154       31.4830627304      -10.5676260808  MEOH      1348            0.0000000000
     28597      2040  MEOH      LP1A           30.4751433328       33.3036339425       -9.9230769147  MEOH      1348            0.0000000000
     28598      2040  MEOH      LP1B           30.8946677552       33.1915318488       -9.4291321006  MEOH      1348            0.0000000000
     28599      2041  MEOH      C1            -29.4627247015       -5.0482323457       -3.1579079818  MEOH      1349            0.0000000000
     28600      2041  MEOH      DC1           -29.4573986961       -5.0455956442       -3.1624165544  MEOH      1349            0.0000000000
     28601      2041  MEOH      O1            -30.7674536762       -5.4180224319       -3.6105785264  MEOH      1349            0.0000000000
     28602      2041  MEOH      DO1           -30.7612715263       -5.4193387738       -3.6234981602  MEOH      1349            0.0000000000
     28603      2041  MEOH      HO1           -31.2042533090       -5.8785131859       -2.8770566467  MEOH      1349            0.0000000000
     28604      2041  MEOH      HO2           -31.1580128790       -4.6113980121       -3.9816857271  MEOH      1349            0.0000000000
     28605      2041  MEOH      H1A           -28.9231220505       -4.5014465952       -3.9605133163  MEOH      1349            0.0000000000
     28606      2041  MEOH      H1B           -28.8848981752       -5.9580042658       -2.8881811592  MEOH      1349            0.0000000000
     28607      2041  MEOH      H1C           -29.5515709160       -4.3866939731       -2.2697670395  MEOH      1349            0.0000000000
     28608      2041  MEOH      LP1A          -30.9946280264       -5.1600747608       -3.5445875148  MEOH      1349            0.0000000000
     28609      2041  MEOH      LP1B          -30.7565869713       -5.7331072426       -3.7625768053  MEOH      1349            0.0000000000
     28610      2042  MEOH      C1            -25.9467398230       33.2239982377       19.8774015755  MEOH      1350            0.0000000000
     28611      2042  MEOH      DC1           -25.9461217129       33.2241850730       19.8797474808  MEOH      1350            0.0000000000
     28612      2042  MEOH      O1            -27.2165428437       32.7653413950       20.3443923719  MEOH      1350            0.0000000000
     28613      2042  MEOH      DO1           -27.2239991882       32.7756610406       20.3427441319  MEOH      1350            0.0000000000
     28614      2042  MEOH      HO1           -27.8570641717       32.9448405720       19.6384090330  MEOH      1350            0.0000000000
     28615      2042  MEOH      HO2           -27.0652798974       31.8502129938       20.6282224804  MEOH      1350            0.0000000000
     28616      2042  MEOH      H1A           -25.1373273793       33.0873448798       20.6260659577  MEOH      1350            0.0000000000
     28617      2042  MEOH      H1B           -26.0039166337       34.3048956907       19.6269769185  MEOH      1350            0.0000000000
     28618      2042  MEOH      H1C           -25.6470285083       32.6182089693       18.9956343216  MEOH      1350            0.0000000000
     28619      2042  MEOH      LP1A          -27.2610301742       32.4288188898       20.2591076666  MEOH      1350            0.0000000000
     28620      2042  MEOH      LP1B          -27.3800276061       33.0216635237       20.5178043056  MEOH      1350            0.0000000000
     28621      2043  MEOH      C1             25.5107062805       12.2687788431      -30.5147073657  MEOH      1351            0.0000000000
     28622      2043  MEOH      DC1            25.4999567799       12.2671567880      -30.5113765305  MEOH      1351            0.0000000000
     28623      2043  MEOH      O1             25.4094126486       10.9405229295      -30.0052197968  MEOH      1351            0.0000000000
     28624      2043  MEOH      DO1            25.4065434008       10.9433247324      -29.9910719260  MEOH      1351            0.0000000000
     28625      2043  MEOH      HO1            24.9050181070       10.4102937187      -30.6418854322  MEOH      1351            0.0000000000
     28626      2043  MEOH      HO2            26.3151301574       10.6855535391      -29.7694945241  MEOH      1351            0.0000000000
     28627      2043  MEOH      H1A            25.9697808879       12.9264688432      -29.7459321249  MEOH      1351            0.0000000000
     28628      2043  MEOH      H1B            24.5061049841       12.6746590977      -30.7603869436  MEOH      1351            0.0000000000
     28629      2043  MEOH      H1C            26.1500767273       12.2908532011      -31.4230240255  MEOH      1351            0.0000000000
     28630      2043  MEOH      LP1A           25.6830352155       10.7501712255      -30.1119761533  MEOH      1351            0.0000000000
     28631      2043  MEOH      LP1B           25.1248011323       10.9110039272      -29.8036635681  MEOH      1351            0.0000000000
     28632      2044  MEOH      C1             -2.6199272565        6.8327576775       13.8889431460  MEOH      1352            0.0000000000
     28633      2044  MEOH      DC1            -2.6153784394        6.8331177617       13.8916726567  MEOH      1352            0.0000000000
     28634      2044  MEOH      O1             -3.0455824285        5.8434187540       14.8294936341  MEOH      1352            0.0000000000
     28635      2044  MEOH      DO1            -3.0446489906        5.8445586228       14.8324373144  MEOH      1352            0.0000000000
     28636      2044  MEOH      HO1            -3.6488808330        5.2387235096       14.3698473590  MEOH      1352            0.0000000000
     28637      2044  MEOH      HO2            -2.2429752994        5.5196346241       15.2675411584  MEOH      1352            0.0000000000
     28638      2044  MEOH      H1A            -2.0394922138        7.6185040316       14.4181111995  MEOH      1352            0.0000000000
     28639      2044  MEOH      H1B            -3.4962021235        7.3115501641       13.4018896456  MEOH      1352            0.0000000000
     28640      2044  MEOH      H1C            -1.9725639213        6.3711393109       13.1129597717  MEOH      1352            0.0000000000
     28641      2044  MEOH      LP1A           -2.8232356395        5.5731244533       14.8277917495  MEOH      1352            0.0000000000
     28642      2044  MEOH      LP1B           -3.3327953933        5.9530360355       14.9968040175  MEOH      1352            0.0000000000
     28643      2045  MEOH      C1            -34.2131203805       10.2019956724       -5.8893548416  MEOH      1353            0.0000000000
     28644      2045  MEOH      DC1           -34.2103623561       10.1967668747       -5.8778314143  MEOH      1353            0.0000000000
     28645      2045  MEOH      O1            -33.7382022500       10.9470376153       -4.7646952820  MEOH      1353            0.0000000000
     28646      2045  MEOH      DO1           -33.7200209556       10.9321412836       -4.7588656288  MEOH      1353            0.0000000000
     28647      2045  MEOH      HO1           -33.0780491457       11.5674912804       -5.1113004295  MEOH      1353            0.0000000000
     28648      2045  MEOH      HO2           -34.5348266791       11.3206509502       -4.3564029894  MEOH      1353            0.0000000000
     28649      2045  MEOH      H1A           -35.0552233958        9.5475430489       -5.5781069083  MEOH      1353            0.0000000000
     28650      2045  MEOH      H1B           -33.3972922960        9.5730401258       -6.3054803717  MEOH      1353            0.0000000000
     28651      2045  MEOH      H1C           -34.5580155603       10.8871242330       -6.6930756717  MEOH      1353            0.0000000000
     28652      2045  MEOH      LP1A          -33.9378978404       11.2302846380       -4.7157790746  MEOH      1353            0.0000000000
     28653      2045  MEOH      LP1B          -33.4660361191       10.7825965416       -4.6184600933  MEOH      1353            0.0000000000
     28654      2046  MEOH      C1            -32.6630740598       31.9128805603      -23.9613729107  MEOH      1354            0.0000000000
     28655      2046  MEOH      DC1           -32.6715126944       31.9136768572      -23.9687192504  MEOH      1354            0.0000000000
     28656      2046  MEOH      O1            -33.6789326237       31.9236743475      -22.9604366392  MEOH      1354            0.0000000000
     28657      2046  MEOH      DO1           -33.6868113567       31.9276293404      -22.9649815469  MEOH      1354            0.0000000000
     28658      2046  MEOH      HO1           -33.8501747775       32.8472003048      -22.7182054857  MEOH      1354            0.0000000000
     28659      2046  MEOH      HO2           -34.3881034583       31.3474657375      -23.2859521766  MEOH      1354            0.0000000000
     28660      2046  MEOH      H1A           -32.3231202534       30.8681889348      -24.1268172088  MEOH      1354            0.0000000000
     28661      2046  MEOH      H1B           -31.7982735170       32.5217613624      -23.6212182514  MEOH      1354            0.0000000000
     28662      2046  MEOH      H1C           -33.0533588665       32.3288995920      -24.9147495073  MEOH      1354            0.0000000000
     28663      2046  MEOH      LP1A          -33.9947867263       31.9375078670      -23.1105859635  MEOH      1354            0.0000000000
     28664      2046  MEOH      LP1B          -33.5341318523       31.9001916989      -22.6426610866  MEOH      1354            0.0000000000
     28665      2047  MEOH      C1              9.6665619195      -10.8030519511       33.1501541004  MEOH      1355            0.0000000000
     28666      2047  MEOH      DC1             9.6708145582      -10.8125551019       33.1330995031  MEOH      1355            0.0000000000
     28667      2047  MEOH      O1              8.8492541706      -10.5532776624       34.2957958994  MEOH      1355            0.0000000000
     28668      2047  MEOH      DO1             8.8532656695      -10.5564124165       34.2837808625  MEOH      1355            0.0000000000
     28669      2047  MEOH      HO1             8.9367771002       -9.6193100266       34.5426646764  MEOH      1355            0.0000000000
     28670      2047  MEOH      HO2             7.9817586716      -10.9451755750       34.1093352190  MEOH      1355            0.0000000000
     28671      2047  MEOH      H1A             9.7208535748      -11.9010915407       32.9898965690  MEOH      1355            0.0000000000
     28672      2047  MEOH      H1B            10.6951885816      -10.4160279832       33.3128213627  MEOH      1355            0.0000000000
     28673      2047  MEOH      H1C             9.2315739271      -10.3113878460       32.2538434091  MEOH      1355            0.0000000000
     28674      2047  MEOH      LP1A            8.5266455106      -10.4622195668       34.1951376869  MEOH      1355            0.0000000000
     28675      2047  MEOH      LP1B            9.0316434022      -10.6134877653       34.5883859056  MEOH      1355            0.0000000000
     28676      2048  MEOH      C1             -8.0694691137       28.1987424319      -34.3526701964  MEOH      1356            0.0000000000
     28677      2048  MEOH      DC1            -8.0662859893       28.1947719884      -34.3510016531  MEOH      1356            0.0000000000
     28678      2048  MEOH      O1             -8.3234206179       26.8804797094      -34.8352071445  MEOH      1356            0.0000000000
     28679      2048  MEOH      DO1            -8.3240814577       26.8699228805      -34.8270636733  MEOH      1356            0.0000000000
     28680      2048  MEOH      HO1            -7.9075550440       26.2643479122      -34.2120398846  MEOH      1356            0.0000000000
     28681      2048  MEOH      HO2            -9.2735161117       26.8440292802      -35.0272746300  MEOH      1356            0.0000000000
     28682      2048  MEOH      H1A            -8.3524646803       28.9381190542      -35.1321294449  MEOH      1356            0.0000000000
     28683      2048  MEOH      H1B            -6.9906432403       28.3026674916      -34.1084258169  MEOH      1356            0.0000000000
     28684      2048  MEOH      H1C            -8.6656575990       28.4051824454      -33.4381961332  MEOH      1356            0.0000000000
     28685      2048  MEOH      LP1A           -8.6257232001       26.7615049768      -34.7049836374  MEOH      1356            0.0000000000
     28686      2048  MEOH      LP1B           -8.0695122094       26.7825921098      -35.0553174303  MEOH      1356            0.0000000000
     28687      2049  MEOH      C1             26.4144506588       13.9373980456      -15.0511925706  MEOH      1357            0.0000000000
     28688      2049  MEOH      DC1            26.4233759008       13.9417868095      -15.0726938410  MEOH      1357            0.0000000000
     28689      2049  MEOH      O1             27.2401629694       15.0938910467      -14.9320701924  MEOH      1357            0.0000000000
     28690      2049  MEOH      DO1            27.2459733828       15.1010922158      -14.9618178326  MEOH      1357            0.0000000000
     28691      2049  MEOH      HO1            26.6266267109       15.8394279723      -14.8390758264  MEOH      1357            0.0000000000
     28692      2049  MEOH      HO2            27.8155319639       14.9003388945      -14.1755068532  MEOH      1357            0.0000000000
     28693      2049  MEOH      H1A            27.0261382730       13.0170937298      -14.9363046703  MEOH      1357            0.0000000000
     28694      2049  MEOH      H1B            25.9018981370       13.9360060966      -16.0368948456  MEOH      1357            0.0000000000
     28695      2049  MEOH      H1C            25.6352484544       13.9389758806      -14.2592566914  MEOH      1357            0.0000000000
     28696      2049  MEOH      LP1A           27.3187773004       15.1507263622      -14.5957823189  MEOH      1357            0.0000000000
     28697      2049  MEOH      LP1B           27.3095376667       15.2246310431      -15.2492360871  MEOH      1357            0.0000000000
     28698      2050  MEOH      C1             -5.8485845801       20.9859774120       -7.2768379356  MEOH      1358            0.0000000000
     28699      2050  MEOH      DC1            -5.8526482527       20.9861973812       -7.2732740739  MEOH      1358            0.0000000000
     28700      2050  MEOH      O1             -7.2061225214       20.8450656547       -6.8446442544  MEOH      1358            0.0000000000
     28701      2050  MEOH      DO1            -7.2092092335       20.8416067379       -6.8376987569  MEOH      1358            0.0000000000
     28702      2050  MEOH      HO1            -7.3309755632       21.4306576189       -6.0814969748  MEOH      1358            0.0000000000
     28703      2050  MEOH      HO2            -7.7537776150       20.9464131343       -7.6388121125  MEOH      1358            0.0000000000
     28704      2050  MEOH      H1A            -5.6583540392       20.2950396257       -8.1258010189  MEOH      1358            0.0000000000
     28705      2050  MEOH      H1B            -5.1559926293       20.7199012202       -6.4498912313  MEOH      1358            0.0000000000
     28706      2050  MEOH      H1C            -5.6509621297       22.0301333359       -7.6008823371  MEOH      1358            0.0000000000
     28707      2050  MEOH      LP1A           -7.4100972097       21.0732623984       -7.0144104840  MEOH      1358            0.0000000000
     28708      2050  MEOH      LP1B           -7.2310479923       20.5856829493       -6.6109792527  MEOH      1358            0.0000000000
     28709      2051  MEOH      C1            -10.8282786917       33.0275398016      -22.6566758308  MEOH      1359            0.0000000000
     28710      2051  MEOH      DC1           -10.8326811753       33.0244457783      -22.6610096179  MEOH      1359            0.0000000000
     28711      2051  MEOH      O1            -10.8655990632       31.6928848809      -23.1680124240  MEOH      1359            0.0000000000
     28712      2051  MEOH      DO1           -10.8627979215       31.6841717073      -23.1782686439  MEOH      1359            0.0000000000
     28713      2051  MEOH      HO1           -10.5600538073       31.1349482452      -22.4357223123  MEOH      1359            0.0000000000
     28714      2051  MEOH      HO2           -11.7607515794       31.5755166283      -23.5227329706  MEOH      1359            0.0000000000
     28715      2051  MEOH      H1A           -11.1385702766       33.7476922969      -23.4437085600  MEOH      1359            0.0000000000
     28716      2051  MEOH      H1B            -9.7974926245       33.2761407664      -22.3250153962  MEOH      1359            0.0000000000
     28717      2051  MEOH      H1C           -11.5194481057       33.1140112535      -21.7911537160  MEOH      1359            0.0000000000
     28718      2051  MEOH      LP1A          -11.1805807418       31.5514788092      -23.1106463621  MEOH      1359            0.0000000000
     28719      2051  MEOH      LP1B          -10.5606906202       31.6147650584      -23.3210749429  MEOH      1359            0.0000000000
     28720      2052  MEOH      C1              2.6004611442      -31.1749371154        5.8628450890  MEOH      1360            0.0000000000
     28721      2052  MEOH      DC1             2.6027041582      -31.1551420362        5.8671660877  MEOH      1360            0.0000000000
     28722      2052  MEOH      O1              3.6627556619      -30.3632062229        6.3741553598  MEOH      1360            0.0000000000
     28723      2052  MEOH      DO1             3.6666954971      -30.3471349707        6.3827168957  MEOH      1360            0.0000000000
     28724      2052  MEOH      HO1             4.3550792067      -30.3752294725        5.6948589947  MEOH      1360            0.0000000000
     28725      2052  MEOH      HO2             3.2567402936      -29.5301835083        6.6607293951  MEOH      1360            0.0000000000
     28726      2052  MEOH      H1A             1.8350865717      -31.3367758581        6.6517246654  MEOH      1360            0.0000000000
     28727      2052  MEOH      H1B             2.9891363122      -32.1672699674        5.5489531895  MEOH      1360            0.0000000000
     28728      2052  MEOH      H1C             2.1265316664      -30.6773326029        4.9898607814  MEOH      1360            0.0000000000
     28729      2052  MEOH      LP1A            3.6143234964      -30.0295515153        6.2801933383  MEOH      1360            0.0000000000
     28730      2052  MEOH      LP1B            3.8827669165      -30.5590970625        6.5631575471  MEOH      1360            0.0000000000
     28731      2053  MEOH      C1              8.5728594746      -14.7995929652        1.8253857938  MEOH      1361            0.0000000000
     28732      2053  MEOH      DC1             8.5791605341      -14.8051519740        1.8259081804  MEOH      1361            0.0000000000
     28733      2053  MEOH      O1              9.3686733415      -15.6039750149        2.6991346873  MEOH      1361            0.0000000000
     28734      2053  MEOH      DO1             9.3785597008      -15.6061075717        2.6991314207  MEOH      1361            0.0000000000
     28735      2053  MEOH      HO1             9.6163042816      -16.4029185149        2.2079440901  MEOH      1361            0.0000000000
     28736      2053  MEOH      HO2            10.0478198730      -15.0118616887        3.0583864062  MEOH      1361            0.0000000000
     28737      2053  MEOH      H1A             8.1350183958      -13.9482475291        2.3891473913  MEOH      1361            0.0000000000
     28738      2053  MEOH      H1B             7.7469419323      -15.3909528433        1.3754138970  MEOH      1361            0.0000000000
     28739      2053  MEOH      H1C             9.2145864820      -14.4073854277        1.0076568062  MEOH      1361            0.0000000000
     28740      2053  MEOH      LP1A            9.7061658210      -15.5166177056        2.6680295949  MEOH      1361            0.0000000000
     28741      2053  MEOH      LP1B            9.1633667047      -15.8181433890        2.8848255392  MEOH      1361            0.0000000000
     28742      2054  MEOH      C1             34.6482260757       28.2047721913        7.3067965871  MEOH      1362            0.0000000000
     28743      2054  MEOH      DC1            34.6427243398       28.2017305709        7.3041657092  MEOH      1362            0.0000000000
     28744      2054  MEOH      O1             33.2277574617       28.0381197367        7.2505182069  MEOH      1362            0.0000000000
     28745      2054  MEOH      DO1            33.2230807275       28.0270433364        7.2514486474  MEOH      1362            0.0000000000
     28746      2054  MEOH      HO1            32.9834578540       27.9847605518        6.3133039836  MEOH      1362            0.0000000000
     28747      2054  MEOH      HO2            33.0124116125       27.3201801203        7.8662201416  MEOH      1362            0.0000000000
     28748      2054  MEOH      H1A            34.9594504826       28.4146991611        8.3524499888  MEOH      1362            0.0000000000
     28749      2054  MEOH      H1B            34.9588843105       29.0552851099        6.6630262583  MEOH      1362            0.0000000000
     28750      2054  MEOH      H1C            35.1614614801       27.2793053931        6.9685339286  MEOH      1362            0.0000000000
     28751      2054  MEOH      LP1A           33.1466804971       27.6977786947        7.2602393664  MEOH      1362            0.0000000000
     28752      2054  MEOH      LP1B           33.0707515481       28.3508342219        7.2428504944  MEOH      1362            0.0000000000
     28753      2055  MEOH      C1             24.3175724484      -21.7458954970       30.1633623151  MEOH      1363            0.0000000000
     28754      2055  MEOH      DC1            24.3157795733      -21.7466241873       30.1644464890  MEOH      1363            0.0000000000
     28755      2055  MEOH      O1             23.5173790135      -22.7393425708       30.8081551863  MEOH      1363            0.0000000000
     28756      2055  MEOH      DO1            23.5193107495      -22.7374082024       30.8089761502  MEOH      1363            0.0000000000
     28757      2055  MEOH      HO1            23.1629670604      -22.3550848910       31.6252464927  MEOH      1363            0.0000000000
     28758      2055  MEOH      HO2            22.9097479352      -23.0715820505       30.1289634594  MEOH      1363            0.0000000000
     28759      2055  MEOH      H1A            24.8180513190      -22.1920128602       29.2774609668  MEOH      1363            0.0000000000
     28760      2055  MEOH      H1B            25.0933968342      -21.3707147234       30.8645448231  MEOH      1363            0.0000000000
     28761      2055  MEOH      H1C            23.6897192963      -20.8930022721       29.8276621992  MEOH      1363            0.0000000000
     28762      2055  MEOH      LP1A           23.1872782249      -22.7201580714       30.6934145033  MEOH      1363            0.0000000000
     28763      2055  MEOH      LP1B           23.7157682400      -22.9323059654       31.0224140091  MEOH      1363            0.0000000000
     28764      2056  MEOH      C1              6.8108122338       12.8419949810      -31.8718487518  MEOH      1364            0.0000000000
     28765      2056  MEOH      DC1             6.8241947162       12.8493981040      -31.8636075319  MEOH      1364            0.0000000000
     28766      2056  MEOH      O1              5.7964265097       13.2925464072      -30.9760880998  MEOH      1364            0.0000000000
     28767      2056  MEOH      DO1             5.8263206133       13.3191573054      -30.9536292707  MEOH      1364            0.0000000000
     28768      2056  MEOH      HO1             4.9507436101       13.0914632554      -31.4065367032  MEOH      1364            0.0000000000
     28769      2056  MEOH      HO2             5.9610085049       12.7954669674      -30.1595559219  MEOH      1364            0.0000000000
     28770      2056  MEOH      H1A             7.7721622624       12.7698443270      -31.3196518615  MEOH      1364            0.0000000000
     28771      2056  MEOH      H1B             6.9209412014       13.5527734472      -32.7185993553  MEOH      1364            0.0000000000
     28772      2056  MEOH      H1C             6.5568089402       11.8334863379      -32.2626346836  MEOH      1364            0.0000000000
     28773      2056  MEOH      LP1A            5.7119094734       13.0368231694      -30.7525651787  MEOH      1364            0.0000000000
     28774      2056  MEOH      LP1B            5.7187427589       13.6274138608      -31.0418834140  MEOH      1364            0.0000000000
     28775      2057  MEOH      C1             13.1374820750       17.7529746902       13.0403206838  MEOH      1365            0.0000000000
     28776      2057  MEOH      DC1            13.1474853134       17.7404404634       13.0428452612  MEOH      1365            0.0000000000
     28777      2057  MEOH      O1             11.7685330151       17.4641614886       12.7742618860  MEOH      1365            0.0000000000
     28778      2057  MEOH      DO1            11.7807976464       17.4539659582       12.7748272518  MEOH      1365            0.0000000000
     28779      2057  MEOH      HO1            11.4364447069       18.1382112351       12.1608498749  MEOH      1365            0.0000000000
     28780      2057  MEOH      HO2            11.7292316873       16.5201458729       12.5547398529  MEOH      1365            0.0000000000
     28781      2057  MEOH      H1A            13.4862080659       17.0976515372       13.8669177745  MEOH      1365            0.0000000000
     28782      2057  MEOH      H1B            13.2384312383       18.8172325237       13.3427864350  MEOH      1365            0.0000000000
     28783      2057  MEOH      H1C            13.7617915413       17.5699988088       12.1397217069  MEOH      1365            0.0000000000
     28784      2057  MEOH      LP1A           11.7429029452       17.2474286638       12.5006380892  MEOH      1365            0.0000000000
     28785      2057  MEOH      LP1B           11.5646078607       17.6232128127       13.0100948941  MEOH      1365            0.0000000000
     28786      2058  MEOH      C1             18.0587812728      -25.1930719761       20.4809906608  MEOH      1366            0.0000000000
     28787      2058  MEOH      DC1            18.0554264422      -25.1845968790       20.4966625296  MEOH      1366            0.0000000000
     28788      2058  MEOH      O1             17.3940955055      -26.3266353327       21.0547107787  MEOH      1366            0.0000000000
     28789      2058  MEOH      DO1            17.3784545037      -26.2959413288       21.0792098516  MEOH      1366            0.0000000000
     28790      2058  MEOH      HO1            16.9320631147      -26.7980632371       20.3439493550  MEOH      1366            0.0000000000
     28791      2058  MEOH      HO2            18.0919620459      -26.8234102857       21.5097898244  MEOH      1366            0.0000000000
     28792      2058  MEOH      H1A            18.7886101523      -24.7822814451       21.2110056924  MEOH      1366            0.0000000000
     28793      2058  MEOH      H1B            17.3283999949      -24.4065475146       20.1942094507  MEOH      1366            0.0000000000
     28794      2058  MEOH      H1C            18.6065843032      -25.4870512914       19.5602252168  MEOH      1366            0.0000000000
     28795      2058  MEOH      LP1A           17.6084037428      -26.6033508108       21.0554343834  MEOH      1366            0.0000000000
     28796      2058  MEOH      LP1B           17.0728113026      -26.2363007021       21.1601437692  MEOH      1366            0.0000000000
     28797      2059  MEOH      C1             32.6657723747      -28.8318389073      -18.0791514805  MEOH      1367            0.0000000000
     28798      2059  MEOH      DC1            32.6603439193      -28.8423109237      -18.0827189064  MEOH      1367            0.0000000000
     28799      2059  MEOH      O1             31.3947319306      -28.9931179959      -17.4368431160  MEOH      1367            0.0000000000
     28800      2059  MEOH      DO1            31.4024440415      -29.0217115677      -17.4181583915  MEOH      1367            0.0000000000
     28801      2059  MEOH      HO1            31.1346489463      -28.1019652842      -17.1555893399  MEOH      1367            0.0000000000
     28802      2059  MEOH      HO2            30.8243874929      -29.3925924100      -18.1121411353  MEOH      1367            0.0000000000
     28803      2059  MEOH      H1A            32.9348785967      -29.7525410291      -18.6396962548  MEOH      1367            0.0000000000
     28804      2059  MEOH      H1B            33.4498101928      -28.6266574678      -17.3192131418  MEOH      1367            0.0000000000
     28805      2059  MEOH      H1C            32.6363199108      -27.9721718704      -18.7823059008  MEOH      1367            0.0000000000
     28806      2059  MEOH      LP1A           31.1372577791      -28.9655274690      -17.6723124859  MEOH      1367            0.0000000000
     28807      2059  MEOH      LP1B           31.4402842640      -29.0589395081      -17.0961196013  MEOH      1367            0.0000000000
     28808      2060  MEOH      C1             -1.3994756249      -22.1768909504      -15.8505481404  MEOH      1368            0.0000000000
     28809      2060  MEOH      DC1            -1.3819382022      -22.1871841390      -15.8374613571  MEOH      1368            0.0000000000
     28810      2060  MEOH      O1             -0.2356197250      -22.9739695329      -15.6079000264  MEOH      1368            0.0000000000
     28811      2060  MEOH      DO1            -0.2166834942      -22.9807178912      -15.5986756734  MEOH      1368            0.0000000000
     28812      2060  MEOH      HO1            -0.5708993970      -23.8752909845      -15.4809859509  MEOH      1368            0.0000000000
     28813      2060  MEOH      HO2             0.3611677369      -22.7908768786      -16.3503431593  MEOH      1368            0.0000000000
     28814      2060  MEOH      H1A            -1.1104040427      -21.1167722134      -16.0145813197  MEOH      1368            0.0000000000
     28815      2060  MEOH      H1B            -2.0931301750      -22.2252978763      -14.9840487834  MEOH      1368            0.0000000000
     28816      2060  MEOH      H1C            -1.9320091069      -22.5372945689      -16.7565494223  MEOH      1368            0.0000000000
     28817      2060  MEOH      LP1A           -0.1061609069      -23.0921285359      -15.9108502936  MEOH      1368            0.0000000000
     28818      2060  MEOH      LP1B           -0.1638008825      -22.9798017213      -15.2653974140  MEOH      1368            0.0000000000
     28819      2061  MEOH      C1            -12.5211673192        8.7676737384       29.4031879429  MEOH      1369            0.0000000000
     28820      2061  MEOH      DC1           -12.5153809436        8.7808473351       29.4093099034  MEOH      1369            0.0000000000
     28821      2061  MEOH      O1            -13.4303084266        8.8324274569       30.5013268662  MEOH      1369            0.0000000000
     28822      2061  MEOH      DO1           -13.4244072661        8.8437197080       30.5004266925  MEOH      1369            0.0000000000
     28823      2061  MEOH      HO1           -14.0465781604        9.5645885077       30.3430492260  MEOH      1369            0.0000000000
     28824      2061  MEOH      HO2           -13.7738882770        7.9315031990       30.6071019476  MEOH      1369            0.0000000000
     28825      2061  MEOH      H1A           -11.8087863826        7.9335012025       29.5792293647  MEOH      1369            0.0000000000
     28826      2061  MEOH      H1B           -11.9580848370        9.7209039445       29.3103908921  MEOH      1369            0.0000000000
     28827      2061  MEOH      H1C           -13.0681258469        8.5525338478       28.4603877529  MEOH      1369            0.0000000000
     28828      2061  MEOH      LP1A          -13.7076282358        8.6280921659       30.4393525791  MEOH      1369            0.0000000000
     28829      2061  MEOH      LP1B          -13.3002408743        9.0386729693       30.7524149393  MEOH      1369            0.0000000000
     28830      2062  MEOH      C1            -20.6775637095       16.1077035518       11.1145929350  MEOH      1370            0.0000000000
     28831      2062  MEOH      DC1           -20.6819014369       16.1131603408       11.1044735789  MEOH      1370            0.0000000000
     28832      2062  MEOH      O1            -19.4410314228       16.7885123136       11.3017285690  MEOH      1370            0.0000000000
     28833      2062  MEOH      DO1           -19.4454762977       16.7871968500       11.3047964472  MEOH      1370            0.0000000000
     28834      2062  MEOH      HO1           -19.4774761920       17.6578921195       10.8730672437  MEOH      1370            0.0000000000
     28835      2062  MEOH      HO2           -19.2077914120       16.6851073551       12.2375739155  MEOH      1370            0.0000000000
     28836      2062  MEOH      H1A           -20.5859120928       15.0546531423       11.4566540645  MEOH      1370            0.0000000000
     28837      2062  MEOH      H1B           -20.9753967946       16.1282286554       10.0444550117  MEOH      1370            0.0000000000
     28838      2062  MEOH      H1C           -21.4627538431       16.5902044761       11.7350688110  MEOH      1370            0.0000000000
     28839      2062  MEOH      LP1A          -19.4500349858       16.9736215663       11.5986351207  MEOH      1370            0.0000000000
     28840      2062  MEOH      LP1B          -19.2200833795       16.7089111710       11.0422182220  MEOH      1370            0.0000000000
     28841      2063  MEOH      C1              0.4091460913        1.1096648539      -25.6993384535  MEOH      1371            0.0000000000
     28842      2063  MEOH      DC1             0.4258245812        1.1087942701      -25.7070415485  MEOH      1371            0.0000000000
     28843      2063  MEOH      O1              1.5807963240        0.4101762408      -26.1023490975  MEOH      1371            0.0000000000
     28844      2063  MEOH      DO1             1.5939751945        0.4206966153      -26.1143655094  MEOH      1371            0.0000000000
     28845      2063  MEOH      HO1             2.1424980149        0.3435718652      -25.3143420750  MEOH      1371            0.0000000000
     28846      2063  MEOH      HO2             1.2581297273       -0.4142592520      -26.4986979174  MEOH      1371            0.0000000000
     28847      2063  MEOH      H1A            -0.3599268471        1.0479947062      -26.4987411106  MEOH      1371            0.0000000000
     28848      2063  MEOH      H1B             0.6250640621        2.1827072461      -25.5088641613  MEOH      1371            0.0000000000
     28849      2063  MEOH      H1C            -0.0147733242        0.6573860640      -24.7773529732  MEOH      1371            0.0000000000
     28850      2063  MEOH      LP1A            1.5338004275        0.0655364131      -26.0634289883  MEOH      1371            0.0000000000
     28851      2063  MEOH      LP1B            1.8207770239        0.6362883975      -26.2197482297  MEOH      1371            0.0000000000
     28852      2064  MEOH      C1             34.1396144962       33.4897086716       -8.9522680257  MEOH      1372            0.0000000000
     28853      2064  MEOH      DC1            34.1386262845       33.4762039552       -8.9669170509  MEOH      1372            0.0000000000
     28854      2064  MEOH      O1             34.7872966852       32.5446879500       -9.8068659220  MEOH      1372            0.0000000000
     28855      2064  MEOH      DO1            34.7815349304       32.5418782010       -9.8177981018  MEOH      1372            0.0000000000
     28856      2064  MEOH      HO1            35.3059852601       31.9562577885       -9.2362416083  MEOH      1372            0.0000000000
     28857      2064  MEOH      HO2            34.1014902579       32.1907488769      -10.3944854223  MEOH      1372            0.0000000000
     28858      2064  MEOH      H1A            33.6533369603       34.2855786419       -9.5559617810  MEOH      1372            0.0000000000
     28859      2064  MEOH      H1B            34.8898874671       33.9718609338       -8.2897420522  MEOH      1372            0.0000000000
     28860      2064  MEOH      H1C            33.3693051281       32.9878768771       -8.3284817423  MEOH      1372            0.0000000000
     28861      2064  MEOH      LP1A           34.5807108391       32.2664602990       -9.8559746014  MEOH      1372            0.0000000000
     28862      2064  MEOH      LP1B           35.0975408269       32.6695864229       -9.9100596428  MEOH      1372            0.0000000000
     28863      2065  MEOH      C1             -7.1757672331      -20.3223791797      -29.8921699907  MEOH      1373            0.0000000000
     28864      2065  MEOH      DC1            -7.1536112588      -20.3318571862      -29.8767321691  MEOH      1373            0.0000000000
     28865      2065  MEOH      O1             -6.1416393525      -19.4379660451      -29.4629861736  MEOH      1373            0.0000000000
     28866      2065  MEOH      DO1            -6.1228741574      -19.4465315391      -29.4512867387  MEOH      1373            0.0000000000
     28867      2065  MEOH      HO1            -5.6397969405      -19.2128881597      -30.2619818806  MEOH      1373            0.0000000000
     28868      2065  MEOH      HO2            -6.6111569005      -18.7118795902      -29.0233821109  MEOH      1373            0.0000000000
     28869      2065  MEOH      H1A            -7.9350586294      -20.4489891174      -29.0910660654  MEOH      1373            0.0000000000
     28870      2065  MEOH      H1B            -6.7440905332      -21.3111374795      -30.1573741628  MEOH      1373            0.0000000000
     28871      2065  MEOH      H1C            -7.6945039265      -19.8944644116      -30.7765467174  MEOH      1373            0.0000000000
     28872      2065  MEOH      LP1A           -6.2550641442      -19.1070273768      -29.4736826409  MEOH      1373            0.0000000000
     28873      2065  MEOH      LP1B           -5.8585194957      -19.6212674864      -29.3694782683  MEOH      1373            0.0000000000
     28874      2066  MEOH      C1              8.5818586522      -28.6357828882       16.8673418223  MEOH      1374            0.0000000000
     28875      2066  MEOH      DC1             8.5887071168      -28.6530105676       16.8674416497  MEOH      1374            0.0000000000
     28876      2066  MEOH      O1              8.1963401064      -29.0049082828       18.1858826825  MEOH      1374            0.0000000000
     28877      2066  MEOH      DO1             8.2106333286      -29.0389650142       18.1833200886  MEOH      1374            0.0000000000
     28878      2066  MEOH      HO1             8.4429412481      -28.2589932833       18.7548279263  MEOH      1374            0.0000000000
     28879      2066  MEOH      HO2             7.2513290081      -29.2143542639       18.1227446871  MEOH      1374            0.0000000000
     28880      2066  MEOH      H1A             8.2555335211      -29.4107305818       16.1411951559  MEOH      1374            0.0000000000
     28881      2066  MEOH      H1B             9.6877681912      -28.5321166452       16.8441383035  MEOH      1374            0.0000000000
     28882      2066  MEOH      H1C             8.1157943961      -27.6653149401       16.5929387039  MEOH      1374            0.0000000000
     28883      2066  MEOH      LP1A            7.8660559054      -28.9060090598       18.2461428709  MEOH      1374            0.0000000000
     28884      2066  MEOH      LP1B            8.4578117720      -29.1759698387       18.3435865574  MEOH      1374            0.0000000000
     28885      2067  MEOH      C1             16.0865482729      -15.7104672508       21.2890904803  MEOH      1375            0.0000000000
     28886      2067  MEOH      DC1            16.0966995059      -15.7032038074       21.2717597069  MEOH      1375            0.0000000000
     28887      2067  MEOH      O1             16.3740433411      -16.7283061518       20.3219991832  MEOH      1375            0.0000000000
     28888      2067  MEOH      DO1            16.3896367648      -16.7136383140       20.2999618586  MEOH      1375            0.0000000000
     28889      2067  MEOH      HO1            16.1716380041      -17.5678160346       20.7637629619  MEOH      1375            0.0000000000
     28890      2067  MEOH      HO2            15.8873159091      -16.4818496516       19.5199670133  MEOH      1375            0.0000000000
     28891      2067  MEOH      H1A            16.2362809821      -14.7037192129       20.8437147916  MEOH      1375            0.0000000000
     28892      2067  MEOH      H1B            16.7540369016      -15.8155223097       22.1709880744  MEOH      1375            0.0000000000
     28893      2067  MEOH      H1C            15.0343222719      -15.8082854809       21.6319797298  MEOH      1375            0.0000000000
     28894      2067  MEOH      LP1A           16.0900934681      -16.7924277265       20.1276775598  MEOH      1375            0.0000000000
     28895      2067  MEOH      LP1B           16.7091393730      -16.8261590092       20.3472076672  MEOH      1375            0.0000000000
     28896      2068  MEOH      C1            -25.5957235910       22.6168885116      -16.6091484339  MEOH      1376            0.0000000000
     28897      2068  MEOH      DC1           -25.5868421297       22.6320225381      -16.6155697010  MEOH      1376            0.0000000000
     28898      2068  MEOH      O1            -24.7688625058       23.7764785086      -16.4950251055  MEOH      1376            0.0000000000
     28899      2068  MEOH      DO1           -24.7597369830       23.7811327010      -16.5071506563  MEOH      1376            0.0000000000
     28900      2068  MEOH      HO1           -25.1984259205       24.4867323121      -16.9969362603  MEOH      1376            0.0000000000
     28901      2068  MEOH      HO2           -24.6324510982       23.8911390867      -15.5415342139  MEOH      1376            0.0000000000
     28902      2068  MEOH      H1A           -25.1302432515       21.7863481592      -16.0365650106  MEOH      1376            0.0000000000
     28903      2068  MEOH      H1B           -25.6986701235       22.3163604329      -17.6737638042  MEOH      1376            0.0000000000
     28904      2068  MEOH      H1C           -26.6047663110       22.7986532631      -16.1812286228  MEOH      1376            0.0000000000
     28905      2068  MEOH      LP1A          -24.8606380272       23.9616128077      -16.2125316631  MEOH      1376            0.0000000000
     28906      2068  MEOH      LP1B          -24.5311450174       23.7797454697      -16.7518902894  MEOH      1376            0.0000000000
     28907      2069  MEOH      C1             31.3380451766        6.5260042122        2.1052404803  MEOH      1377            0.0000000000
     28908      2069  MEOH      DC1            31.3220619342        6.5200759440        2.1140282756  MEOH      1377            0.0000000000
     28909      2069  MEOH      O1             31.6789570543        5.2787287164        1.4923309590  MEOH      1377            0.0000000000
     28910      2069  MEOH      DO1            31.6619281902        5.2740550591        1.4994323124  MEOH      1377            0.0000000000
     28911      2069  MEOH      HO1            31.7306688453        5.4380288997        0.5368994636  MEOH      1377            0.0000000000
     28912      2069  MEOH      HO2            32.4826850404        4.9819670138        1.9471428069  MEOH      1377            0.0000000000
     28913      2069  MEOH      H1A            31.3662361663        6.4129972753        3.2101186193  MEOH      1377            0.0000000000
     28914      2069  MEOH      H1B            30.3232388936        6.8456844746        1.7854065584  MEOH      1377            0.0000000000
     28915      2069  MEOH      H1C            32.0653873899        7.3131697721        1.8125551783  MEOH      1377            0.0000000000
     28916      2069  MEOH      LP1A           32.0268986135        5.2446966431        1.4756429593  MEOH      1377            0.0000000000
     28917      2069  MEOH      LP1B           31.3882480078        5.0990557355        1.4167937481  MEOH      1377            0.0000000000
     28918      2070  MEOH      C1             14.7958787335        8.9795064049      -21.2246952804  MEOH      1378            0.0000000000
     28919      2070  MEOH      DC1            14.7763612174        8.9588647147      -21.1938445255  MEOH      1378            0.0000000000
     28920      2070  MEOH      O1             14.9696712666        7.7534597069      -20.5081740071  MEOH      1378            0.0000000000
     28921      2070  MEOH      DO1            14.9703044491        7.7574879626      -20.4694220349  MEOH      1378            0.0000000000
     28922      2070  MEOH      HO1            14.8511148961        7.0477835504      -21.1630522785  MEOH      1378            0.0000000000
     28923      2070  MEOH      HO2            15.8250393505        7.8432130331      -20.0596321681  MEOH      1378            0.0000000000
     28924      2070  MEOH      H1A            14.9330966340        9.8506244681      -20.5489397272  MEOH      1378            0.0000000000
     28925      2070  MEOH      H1B            13.7817949705        9.0456026766      -21.6736790280  MEOH      1378            0.0000000000
     28926      2070  MEOH      H1C            15.5357369121        9.0460608299      -22.0508317004  MEOH      1378            0.0000000000
     28927      2070  MEOH      LP1A           15.3072176062        7.6609335945      -20.5093517823  MEOH      1378            0.0000000000
     28928      2070  MEOH      LP1B           14.6630574443        7.6467242452      -20.3774242264  MEOH      1378            0.0000000000
     28929      2071  MEOH      C1             20.4500802302      -16.1415862755       21.4122138139  MEOH      1379            0.0000000000
     28930      2071  MEOH      DC1            20.4621680063      -16.1597803716       21.4167672697  MEOH      1379            0.0000000000
     28931      2071  MEOH      O1             19.1256737594      -16.4900879750       21.0223257929  MEOH      1379            0.0000000000
     28932      2071  MEOH      DO1            19.1464469230      -16.5064913083       21.0273376281  MEOH      1379            0.0000000000
     28933      2071  MEOH      HO1            18.7857853807      -15.8317778250       20.3962238552  MEOH      1379            0.0000000000
     28934      2071  MEOH      HO2            19.1174392304      -17.4366934158       20.8107357795  MEOH      1379            0.0000000000
     28935      2071  MEOH      H1A            20.7420383243      -16.7719352094       22.2792442018  MEOH      1379            0.0000000000
     28936      2071  MEOH      H1B            20.4933959246      -15.0722225802       21.7103849691  MEOH      1379            0.0000000000
     28937      2071  MEOH      H1C            21.1488985491      -16.3162030857       20.5663515741  MEOH      1379            0.0000000000
     28938      2071  MEOH      LP1A           19.1346219313      -16.7001738459       20.7425332679  MEOH      1379            0.0000000000
     28939      2071  MEOH      LP1B           18.8944973861      -16.3478765790       21.2433086051  MEOH      1379            0.0000000000
     28940      2072  MEOH      C1             -8.4636301849      -27.5334718326       25.7011754704  MEOH      1380            0.0000000000
     28941      2072  MEOH      DC1            -8.4488361489      -27.5239337121       25.7043897658  MEOH      1380            0.0000000000
     28942      2072  MEOH      O1             -7.7087980137      -26.4187940841       26.1766621174  MEOH      1380            0.0000000000
     28943      2072  MEOH      DO1            -7.6886682094      -26.4167488486       26.1892300310  MEOH      1380            0.0000000000
     28944      2072  MEOH      HO1            -7.1700371967      -26.1321676359       25.4226846235  MEOH      1380            0.0000000000
     28945      2072  MEOH      HO2            -8.3735965795      -25.8069536396       26.5296410655  MEOH      1380            0.0000000000
     28946      2072  MEOH      H1A            -9.1607613876      -27.8979027518       26.4857257823  MEOH      1380            0.0000000000
     28947      2072  MEOH      H1B            -7.7789897196      -28.3616547124       25.4188608393  MEOH      1380            0.0000000000
     28948      2072  MEOH      H1C            -9.0650583950      -27.2366242179       24.8154629873  MEOH      1380            0.0000000000
     28949      2072  MEOH      LP1A           -7.8885381349      -26.1225960436       26.1270616169  MEOH      1380            0.0000000000
     28950      2072  MEOH      LP1B           -7.4074218788      -26.5291215726       26.3163054867  MEOH      1380            0.0000000000
     28951      2073  MEOH      C1            -33.9895243608      -19.7419059074       -9.2667592903  MEOH      1381            0.0000000000
     28952      2073  MEOH      DC1           -34.0066054781      -19.7312717561       -9.2624601630  MEOH      1381            0.0000000000
     28953      2073  MEOH      O1            -34.1423302179      -21.1355088437       -9.0045824969  MEOH      1381            0.0000000000
     28954      2073  MEOH      DO1           -34.1530840601      -21.1269602943       -8.9902132188  MEOH      1381            0.0000000000
     28955      2073  MEOH      HO1           -33.2794138540      -21.5450582092       -9.1735341647  MEOH      1381            0.0000000000
     28956      2073  MEOH      HO2           -34.5849043510      -21.2121305717       -8.1448399492  MEOH      1381            0.0000000000
     28957      2073  MEOH      H1A           -34.9930805963      -19.2664961216       -9.3011310589  MEOH      1381            0.0000000000
     28958      2073  MEOH      H1B           -33.4853226959      -19.5929725099      -10.2454934340  MEOH      1381            0.0000000000
     28959      2073  MEOH      H1C           -33.3795381357      -19.2687883464       -8.4677614300  MEOH      1381            0.0000000000
     28960      2073  MEOH      LP1A          -34.0756468678      -21.2019123954       -8.6674713889  MEOH      1381            0.0000000000
     28961      2073  MEOH      LP1B          -34.2456849970      -21.3013185861       -9.2949700293  MEOH      1381            0.0000000000
     28962      2074  MEOH      C1              0.9120390963      -32.3245238381       35.8799146342  MEOH      1382            0.0000000000
     28963      2074  MEOH      DC1             0.9126035783      -32.3493937210       35.8913575263  MEOH      1382            0.0000000000
     28964      2074  MEOH      O1              0.8608017919      -33.5306076498       36.6038230764  MEOH      1382            0.0000000000
     28965      2074  MEOH      DO1             0.8594982943      -33.5414355065       36.6178499644  MEOH      1382            0.0000000000
     28966      2074  MEOH      HO1             1.7349174102      -33.6685551206       37.0010539686  MEOH      1382            0.0000000000
     28967      2074  MEOH      HO2             0.0558794404      -33.5011046014       37.1443132042  MEOH      1382            0.0000000000
     28968      2074  MEOH      H1A             0.2652798126      -32.3857459650       34.9786514750  MEOH      1382            0.0000000000
     28969      2074  MEOH      H1B             1.9546155895      -32.0994152587       35.5689783318  MEOH      1382            0.0000000000
     28970      2074  MEOH      H1C             0.4944059448      -31.5065073302       36.5050166607  MEOH      1382            0.0000000000
     28971      2074  MEOH      LP1A            0.7552207285      -33.4689853265       36.9317793667  MEOH      1382            0.0000000000
     28972      2074  MEOH      LP1B            0.9466933003      -33.7987488106       36.3959217376  MEOH      1382            0.0000000000
     28973      2075  MEOH      C1             -9.5433984182      -34.1845250563      -20.1213421256  MEOH      1383            0.0000000000
     28974      2075  MEOH      DC1            -9.5455971787      -34.1884036969      -20.1333299972  MEOH      1383            0.0000000000
     28975      2075  MEOH      O1             -8.5070112733      -34.9825780284      -20.6976692315  MEOH      1383            0.0000000000
     28976      2075  MEOH      DO1            -8.5048338941      -34.9798597551      -20.7033687931  MEOH      1383            0.0000000000
     28977      2075  MEOH      HO1            -7.8343669243      -35.0962347062      -20.0080811369  MEOH      1383            0.0000000000
     28978      2075  MEOH      HO2            -8.9478114271      -35.7631958127      -21.0681163924  MEOH      1383            0.0000000000
     28979      2075  MEOH      H1A           -10.3224177422      -33.9698913358      -20.8838263941  MEOH      1383            0.0000000000
     28980      2075  MEOH      H1B            -9.1291341810      -33.2163512791      -19.7673002086  MEOH      1383            0.0000000000
     28981      2075  MEOH      H1C           -10.0063433165      -34.7209448230      -19.2656220444  MEOH      1383            0.0000000000
     28982      2075  MEOH      LP1A           -8.5753612988      -35.3221232563      -20.6472974915  MEOH      1383            0.0000000000
     28983      2075  MEOH      LP1B           -8.2709259517      -34.7771812832      -20.8544362497  MEOH      1383            0.0000000000
     28984      2076  MEOH      C1            -27.7443705599        6.1617727104       -6.1042140178  MEOH      1384            0.0000000000
     28985      2076  MEOH      DC1           -27.7368369998        6.1668055532       -6.0942891225  MEOH      1384            0.0000000000
     28986      2076  MEOH      O1            -28.5859984862        6.9106646836       -6.9726812336  MEOH      1384            0.0000000000
     28987      2076  MEOH      DO1           -28.5812030312        6.9100867510       -6.9587867351  MEOH      1384            0.0000000000
     28988      2076  MEOH      HO1           -29.5108634488        6.7066543550       -6.7631470168  MEOH      1384            0.0000000000
     28989      2076  MEOH      HO2           -28.2505447273        7.8206108140       -6.9534766661  MEOH      1384            0.0000000000
     28990      2076  MEOH      H1A           -26.6914184507        6.2763213237       -6.4396115018  MEOH      1384            0.0000000000
     28991      2076  MEOH      H1B           -28.0223143167        5.0868726303       -6.1449336334  MEOH      1384            0.0000000000
     28992      2076  MEOH      H1C           -27.8376640660        6.5366835564       -5.0625522784  MEOH      1384            0.0000000000
     28993      2076  MEOH      LP1A          -28.6572974197        7.2225368040       -6.8307226389  MEOH      1384            0.0000000000
     28994      2076  MEOH      LP1B          -28.6470999807        6.7294399630       -7.2658095469  MEOH      1384            0.0000000000
     28995      2077  MEOH      C1             18.8010971982      -18.3878568568      -10.2225032092  MEOH      1385            0.0000000000
     28996      2077  MEOH      DC1            18.8056159420      -18.3966894278      -10.2343161231  MEOH      1385            0.0000000000
     28997      2077  MEOH      O1             17.8451951372      -19.4536176933      -10.2242985686  MEOH      1385            0.0000000000
     28998      2077  MEOH      DO1            17.8592315845      -19.4683428347      -10.2351978049  MEOH      1385            0.0000000000
     28999      2077  MEOH      HO1            16.9898807463      -19.0664491446      -10.4680972716  MEOH      1385            0.0000000000
     29000      2077  MEOH      HO2            18.2349955058      -20.1766306389      -10.7402520101  MEOH      1385            0.0000000000
     29001      2077  MEOH      H1A            19.7602325106      -18.7430577896       -9.7886682733  MEOH      1385            0.0000000000
     29002      2077  MEOH      H1B            18.4293339643      -17.5442324999       -9.6024943037  MEOH      1385            0.0000000000
     29003      2077  MEOH      H1C            18.9777811375      -18.0261333520      -11.2580030361  MEOH      1385            0.0000000000
     29004      2077  MEOH      LP1A           17.8338915985      -19.6037501283      -10.5402613543  MEOH      1385            0.0000000000
     29005      2077  MEOH      LP1B           17.7048867902      -19.4891122517       -9.9056236494  MEOH      1385            0.0000000000
     29006      2078  MEOH      C1             32.8734196095       14.1651882546        7.7830307608  MEOH      1386            0.0000000000
     29007      2078  MEOH      DC1            32.8609793782       14.1638256052        7.7892457237  MEOH      1386            0.0000000000
     29008      2078  MEOH      O1             33.4757064945       15.4140116306        7.4563901349  MEOH      1386            0.0000000000
     29009      2078  MEOH      DO1            33.4591465956       15.4155043761        7.4538732610  MEOH      1386            0.0000000000
     29010      2078  MEOH      HO1            34.4303001371       15.3207688424        7.6011546351  MEOH      1386            0.0000000000
     29011      2078  MEOH      HO2            33.1332352528       15.6687542082        6.5853449766  MEOH      1386            0.0000000000
     29012      2078  MEOH      H1A            31.7672522164       14.2594279682        7.7402104902  MEOH      1386            0.0000000000
     29013      2078  MEOH      H1B            33.1733217041       13.8610745285        8.8086498788  MEOH      1386            0.0000000000
     29014      2078  MEOH      H1C            33.1994105474       13.3962274349        7.0503984052  MEOH      1386            0.0000000000
     29015      2078  MEOH      LP1A           33.5586375872       15.4216391880        7.1164427062  MEOH      1386            0.0000000000
     29016      2078  MEOH      LP1B           33.4836853441       15.6205760161        7.7388215294  MEOH      1386            0.0000000000
     29017      2079  MEOH      C1              9.6867991608        9.1275524458        0.1576148172  MEOH      1387            0.0000000000
     29018      2079  MEOH      DC1             9.6909140679        9.1288992617        0.1743020315  MEOH      1387            0.0000000000
     29019      2079  MEOH      O1              9.1711956538        8.2149580051       -0.8146304486  MEOH      1387            0.0000000000
     29020      2079  MEOH      DO1             9.1673252775        8.2092418586       -0.7936360819  MEOH      1387            0.0000000000
     29021      2079  MEOH      HO1             8.2330158664        8.4106861477       -0.9643274130  MEOH      1387            0.0000000000
     29022      2079  MEOH      HO2             9.7825232853        8.2655521392       -1.5660416280  MEOH      1387            0.0000000000
     29023      2079  MEOH      H1A            10.7900653204        9.0145302972        0.2235752217  MEOH      1387            0.0000000000
     29024      2079  MEOH      H1B             9.2353678682        8.9199222925        1.1513051656  MEOH      1387            0.0000000000
     29025      2079  MEOH      H1C             9.4574628881       10.1711645392       -0.1466871266  MEOH      1387            0.0000000000
     29026      2079  MEOH      LP1A            9.2151503334        8.3454155934       -1.1364204482  MEOH      1387            0.0000000000
     29027      2079  MEOH      LP1B            9.0512149394        7.9267082587       -0.6564637269  MEOH      1387            0.0000000000
     29028      2080  MEOH      C1             16.5417994691       29.6986268064       31.6736975682  MEOH      1388            0.0000000000
     29029      2080  MEOH      DC1            16.5388587962       29.6904436772       31.6785846594  MEOH      1388            0.0000000000
     29030      2080  MEOH      O1             17.1486391356       30.9869261173       31.8198273745  MEOH      1388            0.0000000000
     29031      2080  MEOH      DO1            17.1370170661       30.9862790747       31.8263997367  MEOH      1388            0.0000000000
     29032      2080  MEOH      HO1            18.1112644880       30.8713298657       31.7899955257  MEOH      1388            0.0000000000
     29033      2080  MEOH      HO2            16.7219369851       31.5502547838       31.1553831795  MEOH      1388            0.0000000000
     29034      2080  MEOH      H1A            15.4371648941       29.8045983205       31.7273025669  MEOH      1388            0.0000000000
     29035      2080  MEOH      H1B            16.8730442945       29.0147999562       32.4842397974  MEOH      1388            0.0000000000
     29036      2080  MEOH      H1C            16.8054360036       29.2684263469       30.6838772096  MEOH      1388            0.0000000000
     29037      2080  MEOH      LP1A           17.1888197472       31.1366122922       31.5060128313  MEOH      1388            0.0000000000
     29038      2080  MEOH      LP1B           17.1995516391       31.0575085583       32.1588348021  MEOH      1388            0.0000000000
     29039      2081  MEOH      C1              7.9021744894      -12.8803398800       11.7825663003  MEOH      1389            0.0000000000
     29040      2081  MEOH      DC1             7.9115461539      -12.8775126860       11.7684037988  MEOH      1389            0.0000000000
     29041      2081  MEOH      O1              7.0647471607      -11.7469930796       12.0283224619  MEOH      1389            0.0000000000
     29042      2081  MEOH      DO1             7.0722340012      -11.7554487117       12.0174646021  MEOH      1389            0.0000000000
     29043      2081  MEOH      HO1             7.2295438390      -11.0515424188       11.3725096580  MEOH      1389            0.0000000000
     29044      2081  MEOH      HO2             6.1695813102      -12.0957292626       12.1623417698  MEOH      1389            0.0000000000
     29045      2081  MEOH      H1A             7.7708082341      -13.6094294622       12.6105109168  MEOH      1389            0.0000000000
     29046      2081  MEOH      H1B             8.9711702501      -12.5799491559       11.7460357967  MEOH      1389            0.0000000000
     29047      2081  MEOH      H1C             7.6068603220      -13.3820145927       10.8362930703  MEOH      1389            0.0000000000
     29048      2081  MEOH      LP1A            6.7608458405      -11.7836594883       11.8586181246  MEOH      1389            0.0000000000
     29049      2081  MEOH      LP1B            7.2238722677      -11.5260067646       12.2481957184  MEOH      1389            0.0000000000
     29050      2082  MEOH      C1             -4.3258937930       35.0739101897       21.0200458479  MEOH      1390            0.0000000000
     29051      2082  MEOH      DC1            -4.3186995356       35.0807746642       21.0305777247  MEOH      1390            0.0000000000
     29052      2082  MEOH      O1             -2.9048338030       34.9682364596       21.1033372214  MEOH      1390            0.0000000000
     29053      2082  MEOH      DO1            -2.8996703309       34.9666233176       21.1216408178  MEOH      1390            0.0000000000
     29054      2082  MEOH      HO1            -2.5708806756       35.0878883391       20.2005311856  MEOH      1390            0.0000000000
     29055      2082  MEOH      HO2            -2.6318455771       35.5477866752       21.8316908279  MEOH      1390            0.0000000000
     29056      2082  MEOH      H1A            -4.7744612832       34.7562710212       21.9855579224  MEOH      1390            0.0000000000
     29057      2082  MEOH      H1B            -4.7110462470       34.4113727317       20.2156686330  MEOH      1390            0.0000000000
     29058      2082  MEOH      H1C            -4.6291979778       36.1226963722       20.8141936773  MEOH      1390            0.0000000000
     29059      2082  MEOH      LP1A           -2.7649232231       35.2827224588       21.1667689641  MEOH      1390            0.0000000000
     29060      2082  MEOH      LP1B           -2.8071879969       34.6343042897       21.0651979706  MEOH      1390            0.0000000000
     29061      2083  MEOH      C1             17.5592029126       19.1297056080       20.7764937062  MEOH      1391            0.0000000000
     29062      2083  MEOH      DC1            17.5855199779       19.1289687065       20.7809239178  MEOH      1391            0.0000000000
     29063      2083  MEOH      O1             18.8423168086       18.9319772576       21.3764220833  MEOH      1391            0.0000000000
     29064      2083  MEOH      DO1            18.8679092716       18.9297345282       21.3738124078  MEOH      1391            0.0000000000
     29065      2083  MEOH      HO1            18.7885945983       19.3683131828       22.2410751261  MEOH      1391            0.0000000000
     29066      2083  MEOH      HO2            19.0038210316       17.9765900284       21.3311271618  MEOH      1391            0.0000000000
     29067      2083  MEOH      H1A            17.5300086919       18.6947125801       19.7546083096  MEOH      1391            0.0000000000
     29068      2083  MEOH      H1B            17.3161287172       20.2118488057       20.7116705990  MEOH      1391            0.0000000000
     29069      2083  MEOH      H1C            16.7621811307       18.6712405860       21.4001018399  MEOH      1391            0.0000000000
     29070      2083  MEOH      LP1A           18.8451511013       18.6321100008       21.5568981069  MEOH      1391            0.0000000000
     29071      2083  MEOH      LP1B           19.0577342044       19.1929623601       21.2870793618  MEOH      1391            0.0000000000
     29072      2084  MEOH      C1             12.5725609442       22.3005412086      -36.3055079961  MEOH      1392            0.0000000000
     29073      2084  MEOH      DC1            12.5670705830       22.3043845995      -36.3060664835  MEOH      1392            0.0000000000
     29074      2084  MEOH      O1             13.3300593721       23.3192272184      -36.9524397736  MEOH      1392            0.0000000000
     29075      2084  MEOH      DO1            13.3190308260       23.3187488817      -36.9572615528  MEOH      1392            0.0000000000
     29076      2084  MEOH      HO1            13.6362277297       23.9298851199      -36.2637759485  MEOH      1392            0.0000000000
     29077      2084  MEOH      HO2            13.9983474390       22.8431394912      -37.4697709416  MEOH      1392            0.0000000000
     29078      2084  MEOH      H1A            12.3794148231       21.4532249662      -36.9976573745  MEOH      1392            0.0000000000
     29079      2084  MEOH      H1B            11.5992359013       22.7203462568      -35.9727572150  MEOH      1392            0.0000000000
     29080      2084  MEOH      H1C            13.1491190437       21.9040856329      -35.4425336419  MEOH      1392            0.0000000000
     29081      2084  MEOH      LP1A           13.6658702225       23.2230416704      -36.9743352770  MEOH      1392            0.0000000000
     29082      2084  MEOH      LP1B           13.1196291931       23.5815607178      -37.0493947885  MEOH      1392            0.0000000000
     29083      2085  MEOH      C1            -16.2171899846        1.9292235813       17.6674974892  MEOH      1393            0.0000000000
     29084      2085  MEOH      DC1           -16.2132879135        1.9465264297       17.6791608991  MEOH      1393            0.0000000000
     29085      2085  MEOH      O1            -16.4245515158        2.4610183698       16.3679391086  MEOH      1393            0.0000000000
     29086      2085  MEOH      DO1           -16.4277006161        2.4751794955       16.3882100532  MEOH      1393            0.0000000000
     29087      2085  MEOH      HO1           -16.4702519400        3.4296592255       16.3445646643  MEOH      1393            0.0000000000
     29088      2085  MEOH      HO2           -15.8529361689        1.9641119496       15.7619358868  MEOH      1393            0.0000000000
     29089      2085  MEOH      H1A           -16.2103887896        0.8203222965       17.5995807421  MEOH      1393            0.0000000000
     29090      2085  MEOH      H1B           -17.0351427002        2.2366311293       18.3536279101  MEOH      1393            0.0000000000
     29091      2085  MEOH      H1C           -15.2339779413        2.2830888446       18.0448493870  MEOH      1393            0.0000000000
     29092      2085  MEOH      LP1A          -16.1168270095        2.5147874726       16.2100957944  MEOH      1393            0.0000000000
     29093      2085  MEOH      LP1B          -16.7674003029        2.4863173197       16.3022529434  MEOH      1393            0.0000000000
     29094      2086  MEOH      C1             24.3867404811      -27.3685924381      -17.5214532585  MEOH      1394            0.0000000000
     29095      2086  MEOH      DC1            24.3568723448      -27.3743715823      -17.5069206019  MEOH      1394            0.0000000000
     29096      2086  MEOH      O1             25.7698540512      -27.3971652007      -17.2090726145  MEOH      1394            0.0000000000
     29097      2086  MEOH      DO1            25.7424376481      -27.4029719879      -17.1994410867  MEOH      1394            0.0000000000
     29098      2086  MEOH      HO1            26.2792641558      -27.4181573298      -18.0342760303  MEOH      1394            0.0000000000
     29099      2086  MEOH      HO2            25.9242253709      -26.6698873306      -16.5860666791  MEOH      1394            0.0000000000
     29100      2086  MEOH      H1A            23.8161929750      -27.3139100297      -16.5697146507  MEOH      1394            0.0000000000
     29101      2086  MEOH      H1B            24.1127124846      -28.2868129834      -18.0836815839  MEOH      1394            0.0000000000
     29102      2086  MEOH      H1C            24.1611828575      -26.4751461254      -18.1420968323  MEOH      1394            0.0000000000
     29103      2086  MEOH      LP1A           25.8929514760      -27.0707515993      -17.1807674047  MEOH      1394            0.0000000000
     29104      2086  MEOH      LP1B           25.8777160567      -27.7282190115      -17.1734473134  MEOH      1394            0.0000000000
     29105      2087  MEOH      C1             19.7167986535       -7.6298647297       16.9200192772  MEOH      1395            0.0000000000
     29106      2087  MEOH      DC1            19.7070060547       -7.6302989409       16.9092048696  MEOH      1395            0.0000000000
     29107      2087  MEOH      O1             19.1667940290       -7.2386036756       15.6568658781  MEOH      1395            0.0000000000
     29108      2087  MEOH      DO1            19.1503858338       -7.2448074202       15.6495809676  MEOH      1395            0.0000000000
     29109      2087  MEOH      HO1            19.3376175973       -7.9649657964       15.0370938410  MEOH      1395            0.0000000000
     29110      2087  MEOH      HO2            18.2696409186       -6.9129566119       15.8299851646  MEOH      1395            0.0000000000
     29111      2087  MEOH      H1A            19.6601437132       -6.7810365821       17.6345834755  MEOH      1395            0.0000000000
     29112      2087  MEOH      H1B            20.7790924305       -7.9334148278       16.8029284105  MEOH      1395            0.0000000000
     29113      2087  MEOH      H1C            19.1539484556       -8.4905702577       17.3403841776  MEOH      1395            0.0000000000
     29114      2087  MEOH      LP1A           18.8320600184       -7.3386704910       15.6358950758  MEOH      1395            0.0000000000
     29115      2087  MEOH      LP1B           19.4061292837       -7.0631894353       15.4712628604  MEOH      1395            0.0000000000
     29116      2088  MEOH      C1              6.1934625474       23.0164403244        1.9453108487  MEOH      1396            0.0000000000
     29117      2088  MEOH      DC1             6.1905646133       23.0117597646        1.9323832877  MEOH      1396            0.0000000000
     29118      2088  MEOH      O1              6.9725569878       22.0529753503        1.2410832914  MEOH      1396            0.0000000000
     29119      2088  MEOH      DO1             6.9662097608       22.0456247914        1.2369275405  MEOH      1396            0.0000000000
     29120      2088  MEOH      HO1             6.3589356770       21.5195482672        0.7120989494  MEOH      1396            0.0000000000
     29121      2088  MEOH      HO2             7.6665981893       22.5642888360        0.7963751493  MEOH      1396            0.0000000000
     29122      2088  MEOH      H1A             6.8431480750       23.6211069201        2.6135982303  MEOH      1396            0.0000000000
     29123      2088  MEOH      H1B             5.4095818962       22.5230928039        2.5588744954  MEOH      1396            0.0000000000
     29124      2088  MEOH      H1C             5.7213822601       23.6985514767        1.2062671554  MEOH      1396            0.0000000000
     29125      2088  MEOH      LP1A            7.0761313408       22.1843607448        0.9336581273  MEOH      1396            0.0000000000
     29126      2088  MEOH      LP1B            7.0094019913       21.7639490889        1.4350066421  MEOH      1396            0.0000000000
     29127      2089  MEOH      C1             10.4424881300      -23.7978712559      -35.6651909520  MEOH      1397            0.0000000000
     29128      2089  MEOH      DC1            10.4350029243      -23.8074504499      -35.6567021076  MEOH      1397            0.0000000000
     29129      2089  MEOH      O1             10.7246128998      -22.3942413075      -35.7855374408  MEOH      1397            0.0000000000
     29130      2089  MEOH      DO1            10.6946649036      -22.4002055633      -35.7745289981  MEOH      1397            0.0000000000
     29131      2089  MEOH      HO1            10.5620781672      -22.1005443888      -36.6956058897  MEOH      1397            0.0000000000
     29132      2089  MEOH      HO2            11.6354870197      -22.2956850006      -35.4669546539  MEOH      1397            0.0000000000
     29133      2089  MEOH      H1A            11.3797581461      -24.3852571488      -35.7692281164  MEOH      1397            0.0000000000
     29134      2089  MEOH      H1B             9.7149881745      -24.1249717455      -36.4385408631  MEOH      1397            0.0000000000
     29135      2089  MEOH      H1C             9.9855157995      -24.0143538787      -34.6759323594  MEOH      1397            0.0000000000
     29136      2089  MEOH      LP1A           10.4377352811      -22.2077373698      -35.7119336832  MEOH      1397            0.0000000000
     29137      2089  MEOH      LP1B           11.0613682242      -22.3464737755      -35.8680850900  MEOH      1397            0.0000000000
     29138      2090  MEOH      C1            -32.6871473198      -36.0970187374      -13.5419408100  MEOH      1398            0.0000000000
     29139      2090  MEOH      DC1           -32.6792096675      -36.0887610525      -13.5365209661  MEOH      1398            0.0000000000
     29140      2090  MEOH      O1            -31.3879225359      -36.4757848952      -13.9744156356  MEOH      1398            0.0000000000
     29141      2090  MEOH      DO1           -31.3854743744      -36.4692385090      -13.9655893732  MEOH      1398            0.0000000000
     29142      2090  MEOH      HO1           -30.7173467074      -35.9765384594      -13.4824999371  MEOH      1398            0.0000000000
     29143      2090  MEOH      HO2           -31.3800666629      -37.4457519572      -13.9758935807  MEOH      1398            0.0000000000
     29144      2090  MEOH      H1A           -33.4414914228      -36.6034395871      -14.1813341933  MEOH      1398            0.0000000000
     29145      2090  MEOH      H1B           -32.8235558199      -34.9974904008      -13.6241062413  MEOH      1398            0.0000000000
     29146      2090  MEOH      H1C           -32.8384315228      -36.4262866729      -12.4916947829  MEOH      1398            0.0000000000
     29147      2090  MEOH      LP1A          -31.2732625303      -36.7471985697      -13.7855037504  MEOH      1398            0.0000000000
     29148      2090  MEOH      LP1B          -31.2882822624      -36.2755918453      -14.2436637716  MEOH      1398            0.0000000000
     29149      2091  MEOH      C1              4.0757887528       35.5795337329        5.0066067776  MEOH      1399            0.0000000000
     29150      2091  MEOH      DC1             4.0876189035       35.5641436905        5.0084663188  MEOH      1399            0.0000000000
     29151      2091  MEOH      O1              5.0501792020       36.6166887537        5.1482378646  MEOH      1399            0.0000000000
     29152      2091  MEOH      DO1             5.0768467133       36.5904662992        5.1504842191  MEOH      1399            0.0000000000
     29153      2091  MEOH      HO1             4.5169069753       37.4258628882        5.1901658223  MEOH      1399            0.0000000000
     29154      2091  MEOH      HO2             5.6402386314       36.5260049905        4.3837077312  MEOH      1399            0.0000000000
     29155      2091  MEOH      H1A             3.8993331081       35.3899245855        3.9262213011  MEOH      1399            0.0000000000
     29156      2091  MEOH      H1B             3.1164360032       35.9080620232        5.4605147692  MEOH      1399            0.0000000000
     29157      2091  MEOH      H1C             4.4155651422       34.6542000939        5.5190818128  MEOH      1399            0.0000000000
     29158      2091  MEOH      LP1A            5.1185880345       36.6712016847        5.4871310218  MEOH      1399            0.0000000000
     29159      2091  MEOH      LP1B            5.1532748148       36.7279650553        4.8328192866  MEOH      1399            0.0000000000
     29160      2092  MEOH      C1             -3.5073477433      -10.0219727061      -36.5594139055  MEOH      1400            0.0000000000
     29161      2092  MEOH      DC1            -3.5089177326      -10.0314494498      -36.5502085735  MEOH      1400            0.0000000000
     29162      2092  MEOH      O1             -4.8040090412      -10.5839082959      -36.7641312489  MEOH      1400            0.0000000000
     29163      2092  MEOH      DO1            -4.8041106136      -10.5880862158      -36.7601924030  MEOH      1400            0.0000000000
     29164      2092  MEOH      HO1            -4.7373138673      -11.1885418145      -37.5196906854  MEOH      1400            0.0000000000
     29165      2092  MEOH      HO2            -5.0950148853      -10.9129844630      -35.8993049799  MEOH      1400            0.0000000000
     29166      2092  MEOH      H1A            -3.5664462531       -9.2151943421      -35.7978779329  MEOH      1400            0.0000000000
     29167      2092  MEOH      H1B            -3.1283260173       -9.5986771290      -37.5141308206  MEOH      1400            0.0000000000
     29168      2092  MEOH      H1C            -2.7933807187      -10.8013559005      -36.2171655677  MEOH      1400            0.0000000000
     29169      2092  MEOH      LP1A           -4.8400019927      -10.8747529128      -36.5727836171  MEOH      1400            0.0000000000
     29170      2092  MEOH      LP1B           -4.9894584282      -10.3811844596      -36.9809527679  MEOH      1400            0.0000000000
     29171      2093  MEOH      C1            -36.5659288059        5.3477483266        1.7053962975  MEOH      1401            0.0000000000
     29172      2093  MEOH      DC1           -36.5456262128        5.3453287989        1.7057051425  MEOH      1401            0.0000000000
     29173      2093  MEOH      O1            -35.2110722461        5.2680065099        1.2625635238  MEOH      1401            0.0000000000
     29174      2093  MEOH      DO1           -35.1884086014        5.2526127768        1.2515745687  MEOH      1401            0.0000000000
     29175      2093  MEOH      HO1           -34.8847266136        6.1800366507        1.3135493155  MEOH      1401            0.0000000000
     29176      2093  MEOH      HO2           -34.8080959302        4.5498680668        1.7751913278  MEOH      1401            0.0000000000
     29177      2093  MEOH      H1A           -37.0838618268        4.3715647068        1.5908016775  MEOH      1401            0.0000000000
     29178      2093  MEOH      H1B           -37.1277443536        6.0941051666        1.1040347110  MEOH      1401            0.0000000000
     29179      2093  MEOH      H1C           -36.6074681660        5.6263910492        2.7800840272  MEOH      1401            0.0000000000
     29180      2093  MEOH      LP1A          -34.9999838055        5.2032707159        1.5341347800  MEOH      1401            0.0000000000
     29181      2093  MEOH      LP1B          -35.1961197673        5.3080543304        0.9151839109  MEOH      1401            0.0000000000
     29182      2094  MEOH      C1             -2.8110417009       33.2702699774       24.0829704599  MEOH      1402            0.0000000000
     29183      2094  MEOH      DC1            -2.8010888813       33.2637134730       24.0920688541  MEOH      1402            0.0000000000
     29184      2094  MEOH      O1             -3.8792357084       32.6388076967       23.3831099651  MEOH      1402            0.0000000000
     29185      2094  MEOH      DO1            -3.8771925558       32.6336228947       23.3965909215  MEOH      1402            0.0000000000
     29186      2094  MEOH      HO1            -3.5825080157       32.3736180579       22.4985043280  MEOH      1402            0.0000000000
     29187      2094  MEOH      HO2            -4.3201109972       32.0352554191       24.0013765969  MEOH      1402            0.0000000000
     29188      2094  MEOH      H1A            -3.2341982685       33.8799599768       24.9097338020  MEOH      1402            0.0000000000
     29189      2094  MEOH      H1B            -2.2386102155       33.9358578630       23.4020622706  MEOH      1402            0.0000000000
     29190      2094  MEOH      H1C            -2.1378878684       32.4942478703       24.5060243661  MEOH      1402            0.0000000000
     29191      2094  MEOH      LP1A           -3.8780373972       32.2948652240       23.4479338769  MEOH      1402            0.0000000000
     29192      2094  MEOH      LP1B           -4.0667911384       32.8781297012       23.2097665520  MEOH      1402            0.0000000000
     29193      2095  MEOH      C1             25.1605659678       -9.3768389071       -5.2030975698  MEOH      1403            0.0000000000
     29194      2095  MEOH      DC1            25.1497871881       -9.3941607736       -5.2104603024  MEOH      1403            0.0000000000
     29195      2095  MEOH      O1             25.7012771841       -8.0573434552       -5.1479403952  MEOH      1403            0.0000000000
     29196      2095  MEOH      DO1            25.6905111123       -8.0728660881       -5.1466662059  MEOH      1403            0.0000000000
     29197      2095  MEOH      HO1            26.6553238041       -8.1006929555       -5.3176927669  MEOH      1403            0.0000000000
     29198      2095  MEOH      HO2            25.1290194821       -7.5101695170       -5.7083168798  MEOH      1403            0.0000000000
     29199      2095  MEOH      H1A            24.1017774930       -9.3508486941       -4.8675197460  MEOH      1403            0.0000000000
     29200      2095  MEOH      H1B            25.7331789021      -10.0440485472       -4.5239313720  MEOH      1403            0.0000000000
     29201      2095  MEOH      H1C            25.2106254031       -9.7671071345       -6.2420902375  MEOH      1403            0.0000000000
     29202      2095  MEOH      LP1A           25.6857557248       -7.9082963647       -5.4642378013  MEOH      1403            0.0000000000
     29203      2095  MEOH      LP1B           25.7970680365       -7.9808361486       -4.8201130860  MEOH      1403            0.0000000000
     29204      2096  MEOH      C1              4.4017926968      -26.8357329458       36.8127195752  MEOH      1404            0.0000000000
     29205      2096  MEOH      DC1             4.3939771836      -26.8427846090       36.8401357301  MEOH      1404            0.0000000000
     29206      2096  MEOH      O1              3.9854543380      -27.9538842053       36.0305801612  MEOH      1404            0.0000000000
     29207      2096  MEOH      DO1             3.9869157308      -27.9778004154       36.0556556663  MEOH      1404            0.0000000000
     29208      2096  MEOH      HO1             4.5009837986      -27.9066679371       35.2102753402  MEOH      1404            0.0000000000
     29209      2096  MEOH      HO2             3.9092969331      -28.7266227498       36.6119365001  MEOH      1404            0.0000000000
     29210      2096  MEOH      H1A             3.5319383793      -26.4458612120       37.3833985563  MEOH      1404            0.0000000000
     29211      2096  MEOH      H1B             4.7101442325      -26.0027292547       36.1453776974  MEOH      1404            0.0000000000
     29212      2096  MEOH      H1C             5.2406675875      -27.1128581994       37.4863749111  MEOH      1404            0.0000000000
     29213      2096  MEOH      LP1A            4.1823865298      -28.2330765642       36.1065363230  MEOH      1404            0.0000000000
     29214      2096  MEOH      LP1B            3.7113761128      -27.8654417632       35.8316855637  MEOH      1404            0.0000000000
     29215      2097  MEOH      C1              9.5828759713       16.7593452340       -7.5473258115  MEOH      1405            0.0000000000
     29216      2097  MEOH      DC1             9.5809911503       16.7703151746       -7.5613750695  MEOH      1405            0.0000000000
     29217      2097  MEOH      O1             10.3207135856       15.5493401359       -7.3556707687  MEOH      1405            0.0000000000
     29218      2097  MEOH      DO1            10.3252679699       15.5647813743       -7.3761957912  MEOH      1405            0.0000000000
     29219      2097  MEOH      HO1             9.9106960087       14.8144961093       -7.8381537673  MEOH      1405            0.0000000000
     29220      2097  MEOH      HO2            11.2639887215       15.7676429575       -7.4146274997  MEOH      1405            0.0000000000
     29221      2097  MEOH      H1A             9.8698646458       17.4863645566       -6.7577680826  MEOH      1405            0.0000000000
     29222      2097  MEOH      H1B             8.4928918008       16.5615554997       -7.4628584818  MEOH      1405            0.0000000000
     29223      2097  MEOH      H1C             9.8196810851       17.2021880024       -8.5383528649  MEOH      1405            0.0000000000
     29224      2097  MEOH      LP1A           10.5700372122       15.5212378976       -7.5996953442  MEOH      1405            0.0000000000
     29225      2097  MEOH      LP1B           10.2023612572       15.3804820766       -7.0728639757  MEOH      1405            0.0000000000
     29226      2098  MEOH      C1            -14.5792011935       31.6166111233       19.9979452313  MEOH      1406            0.0000000000
     29227      2098  MEOH      DC1           -14.5922883550       31.6147455291       20.0005698222  MEOH      1406            0.0000000000
     29228      2098  MEOH      O1            -13.1674286300       31.4543205270       19.8799145374  MEOH      1406            0.0000000000
     29229      2098  MEOH      DO1           -13.1763734753       31.4472189350       19.8894561554  MEOH      1406            0.0000000000
     29230      2098  MEOH      HO1           -12.8700910706       31.9585711587       19.1064666230  MEOH      1406            0.0000000000
     29231      2098  MEOH      HO2           -12.8055363936       31.6255465014       20.7634391131  MEOH      1406            0.0000000000
     29232      2098  MEOH      H1A           -14.9597293334       30.9674709929       20.8153413567  MEOH      1406            0.0000000000
     29233      2098  MEOH      H1B           -15.0936152827       31.3102505755       19.0620807317  MEOH      1406            0.0000000000
     29234      2098  MEOH      H1C           -14.8110612864       32.6800606517       20.2207388548  MEOH      1406            0.0000000000
     29235      2098  MEOH      LP1A          -13.0026320485       31.7016481194       20.0647689362  MEOH      1406            0.0000000000
     29236      2098  MEOH      LP1B          -13.0951852595       31.1730407167       19.6845621283  MEOH      1406            0.0000000000
     29237      2099  MEOH      C1             34.4459420653       11.0491943981       33.4704775755  MEOH      1407            0.0000000000
     29238      2099  MEOH      DC1            34.4443899026       11.0579233521       33.4688740121  MEOH      1407            0.0000000000
     29239      2099  MEOH      O1             35.5424772901       10.2944804396       32.9580518843  MEOH      1407            0.0000000000
     29240      2099  MEOH      DO1            35.5469359567       10.3057478880       32.9574965498  MEOH      1407            0.0000000000
     29241      2099  MEOH      HO1            36.1745093396       10.1815677628       33.6851600039  MEOH      1407            0.0000000000
     29242      2099  MEOH      HO2            35.1405025381        9.5077361914       32.5576148896  MEOH      1407            0.0000000000
     29243      2099  MEOH      H1A            33.6833791112       11.1659898878       32.6709917688  MEOH      1407            0.0000000000
     29244      2099  MEOH      H1B            34.7943344946       12.0520138247       33.7980396501  MEOH      1407            0.0000000000
     29245      2099  MEOH      H1C            33.9785947568       10.5184639036       34.3273513333  MEOH      1407            0.0000000000
     29246      2099  MEOH      LP1A           35.4811390119        9.9521877780       32.9977173534  MEOH      1407            0.0000000000
     29247      2099  MEOH      LP1B           35.7827485638       10.5096313677       32.8221114813  MEOH      1407            0.0000000000
     29248      2100  MEOH      C1             15.9699158528       17.7298845599        8.7986569801  MEOH      1408            0.0000000000
     29249      2100  MEOH      DC1            15.9797674609       17.7310627324        8.8028993771  MEOH      1408            0.0000000000
     29250      2100  MEOH      O1             15.3738439786       18.2330495829        9.9939365574  MEOH      1408            0.0000000000
     29251      2100  MEOH      DO1            15.3789783976       18.2297414184        9.9970901197  MEOH      1408            0.0000000000
     29252      2100  MEOH      HO1            16.0392918284       18.2027246270       10.6990319818  MEOH      1408            0.0000000000
     29253      2100  MEOH      HO2            14.9620515124       19.0752224562        9.7447943967  MEOH      1408            0.0000000000
     29254      2100  MEOH      H1A            15.2007640330       17.6536860414        8.0005841361  MEOH      1408            0.0000000000
     29255      2100  MEOH      H1B            16.4065837646       16.7238155866        8.9760473847  MEOH      1408            0.0000000000
     29256      2100  MEOH      H1C            16.7633301885       18.4231422642        8.4462247903  MEOH      1408            0.0000000000
     29257      2100  MEOH      LP1A           15.4166533298       18.5799411713       10.0122008761  MEOH      1408            0.0000000000
     29258      2100  MEOH      LP1B           15.2211925129       17.9722617606       10.1705356563  MEOH      1408            0.0000000000
     29259      2101  MEOH      C1            -31.1767832067      -26.1377214708       -0.0149482073  MEOH      1409            0.0000000000
     29260      2101  MEOH      DC1           -31.1717125695      -26.1353815209       -0.0230400515  MEOH      1409            0.0000000000
     29261      2101  MEOH      O1            -31.2846327795      -25.2473771416        1.0985007533  MEOH      1409            0.0000000000
     29262      2101  MEOH      DO1           -31.2828439078      -25.2429886044        1.0922040495  MEOH      1409            0.0000000000
     29263      2101  MEOH      HO1           -30.9168623213      -24.3888534675        0.8366191178  MEOH      1409            0.0000000000
     29264      2101  MEOH      HO2           -32.2046794909      -25.3128615131        1.3987104265  MEOH      1409            0.0000000000
     29265      2101  MEOH      H1A           -31.5287911829      -27.1462011801        0.2906333060  MEOH      1409            0.0000000000
     29266      2101  MEOH      H1B           -30.1171366723      -26.2249404637       -0.3372261454  MEOH      1409            0.0000000000
     29267      2101  MEOH      H1C           -31.7982926426      -25.7750324221       -0.8614136090  MEOH      1409            0.0000000000
     29268      2101  MEOH      LP1A          -31.5928953807      -25.0818426418        1.0899861745  MEOH      1409            0.0000000000
     29269      2101  MEOH      LP1B          -30.9992965255      -25.2721646525        1.2996693429  MEOH      1409            0.0000000000
     29270      2102  MEOH      C1             18.4273354561       22.2075050542       19.5641761704  MEOH      1410            0.0000000000
     29271      2102  MEOH      DC1            18.4487606131       22.2008887218       19.5843002065  MEOH      1410            0.0000000000
     29272      2102  MEOH      O1             18.9170164336       22.2306479378       20.9089697643  MEOH      1410            0.0000000000
     29273      2102  MEOH      DO1            18.9288377673       22.2364214437       20.9230594444  MEOH      1410            0.0000000000
     29274      2102  MEOH      HO1            19.8142357847       21.8622016561       20.8969375748  MEOH      1410            0.0000000000
     29275      2102  MEOH      HO2            18.7236774312       23.1141327838       21.2596470484  MEOH      1410            0.0000000000
     29276      2102  MEOH      H1A            17.3373177006       22.4217329769       19.5471852765  MEOH      1410            0.0000000000
     29277      2102  MEOH      H1B            18.6038909526       21.2069922755       19.1145948805  MEOH      1410            0.0000000000
     29278      2102  MEOH      H1C            18.9419603974       22.9683616842       18.9392126837  MEOH      1410            0.0000000000
     29279      2102  MEOH      LP1A           19.0759167569       22.5357972146       20.9732706674  MEOH      1410            0.0000000000
     29280      2102  MEOH      LP1B           18.8301244229       21.9339967642       21.0731277970  MEOH      1410            0.0000000000
     29281      2103  MEOH      C1            -19.0148406809      -16.5144590526       35.2331493546  MEOH      1411            0.0000000000
     29282      2103  MEOH      DC1           -19.0192481005      -16.4994411452       35.2358432293  MEOH      1411            0.0000000000
     29283      2103  MEOH      O1            -19.9822919491      -17.4505596156       34.8111272174  MEOH      1411            0.0000000000
     29284      2103  MEOH      DO1           -19.9958362973      -17.4410945980       34.8055479646  MEOH      1411            0.0000000000
     29285      2103  MEOH      HO1           -20.8544916411      -17.1006605870       35.0514153092  MEOH      1411            0.0000000000
     29286      2103  MEOH      HO2           -19.7447388451      -17.7197904188       33.9100260584  MEOH      1411            0.0000000000
     29287      2103  MEOH      H1A           -18.0024711126      -16.9714656069       35.2091938433  MEOH      1411            0.0000000000
     29288      2103  MEOH      H1B           -19.2636516823      -16.2386705207       36.2802189671  MEOH      1411            0.0000000000
     29289      2103  MEOH      H1C           -19.0555197138      -15.6259997287       34.5673368832  MEOH      1411            0.0000000000
     29290      2103  MEOH      LP1A          -20.0797013979      -17.3819336175       34.4820347203  MEOH      1411            0.0000000000
     29291      2103  MEOH      LP1B          -20.0407324107      -17.6848118830       35.0645252988  MEOH      1411            0.0000000000
     29292      2104  MEOH      C1            -29.1335550851       -1.9984245918      -29.1579375539  MEOH      1412            0.0000000000
     29293      2104  MEOH      DC1           -29.1344081837       -1.9923744876      -29.1661527344  MEOH      1412            0.0000000000
     29294      2104  MEOH      O1            -28.9445172643       -3.0748733419      -30.0735543706  MEOH      1412            0.0000000000
     29295      2104  MEOH      DO1           -28.9475526646       -3.0629975213      -30.0750672743  MEOH      1412            0.0000000000
     29296      2104  MEOH      HO1           -28.6526749425       -3.8523568895      -29.5723085305  MEOH      1412            0.0000000000
     29297      2104  MEOH      HO2           -29.7625449702       -3.1324531419      -30.5916424329  MEOH      1412            0.0000000000
     29298      2104  MEOH      H1A           -29.3763595067       -1.0757989089      -29.7272607154  MEOH      1412            0.0000000000
     29299      2104  MEOH      H1B           -28.2052087566       -1.8289285514      -28.5716226316  MEOH      1412            0.0000000000
     29300      2104  MEOH      H1C           -29.9687167458       -2.2281759633      -28.4622074997  MEOH      1412            0.0000000000
     29301      2104  MEOH      LP1A          -29.2435375174       -3.2524625961      -30.1129110095  MEOH      1412            0.0000000000
     29302      2104  MEOH      LP1B          -28.6168889935       -3.0712093052      -30.1966246391  MEOH      1412            0.0000000000
     29303      2105  MEOH      C1             26.0548475070      -11.1551569893       32.8949850307  MEOH      1413            0.0000000000
     29304      2105  MEOH      DC1            26.0596334581      -11.1906717177       32.8883246945  MEOH      1413            0.0000000000
     29305      2105  MEOH      O1             25.8470562388      -12.5628881132       32.9587167899  MEOH      1413            0.0000000000
     29306      2105  MEOH      DO1            25.8440093135      -12.5870253100       32.9487789457  MEOH      1413            0.0000000000
     29307      2105  MEOH      HO1            25.0207113267      -12.7082839999       33.4454550382  MEOH      1413            0.0000000000
     29308      2105  MEOH      HO2            26.0154621106      -12.9285186968       32.0761898835  MEOH      1413            0.0000000000
     29309      2105  MEOH      H1A            27.0750966580      -10.9153322413       32.5263432521  MEOH      1413            0.0000000000
     29310      2105  MEOH      H1B            25.9579308805      -10.7189537162       33.9121648929  MEOH      1413            0.0000000000
     29311      2105  MEOH      H1C            25.3084222531      -10.6904737448       32.2158386366  MEOH      1413            0.0000000000
     29312      2105  MEOH      LP1A           25.6660944472      -12.6699694184       32.6789196776  MEOH      1413            0.0000000000
     29313      2105  MEOH      LP1B           26.0028106404      -12.6941176206       33.2433558294  MEOH      1413            0.0000000000
     29314      2106  MEOH      C1             28.0920415102      -34.7663374920       25.1205117685  MEOH      1414            0.0000000000
     29315      2106  MEOH      DC1            28.1015622716      -34.7655855047       25.1298805953  MEOH      1414            0.0000000000
     29316      2106  MEOH      O1             28.0821178345      -33.3896596461       24.7374996803  MEOH      1414            0.0000000000
     29317      2106  MEOH      DO1            28.0950836949      -33.3824386249       24.7543262270  MEOH      1414            0.0000000000
     29318      2106  MEOH      HO1            27.6734773567      -32.8813514930       25.4555078845  MEOH      1414            0.0000000000
     29319      2106  MEOH      HO2            28.9635491208      -33.1859738240       24.3875125737  MEOH      1414            0.0000000000
     29320      2106  MEOH      H1A            28.3507105903      -35.3914607207       24.2392443528  MEOH      1414            0.0000000000
     29321      2106  MEOH      H1B            27.0848610992      -35.0683704813       25.4792382572  MEOH      1414            0.0000000000
     29322      2106  MEOH      H1C            28.8436002070      -34.9310089277       25.9219878090  MEOH      1414            0.0000000000
     29323      2106  MEOH      LP1A           28.3789858351      -33.2348753719       24.8395350601  MEOH      1414            0.0000000000
     29324      2106  MEOH      LP1B           27.7886470361      -33.3165238699       24.5613575538  MEOH      1414            0.0000000000
     29325      2107  MEOH      C1             -4.0320449176       23.4902015956      -15.8580888019  MEOH      1415            0.0000000000
     29326      2107  MEOH      DC1            -4.0251689883       23.4754734003      -15.8635182622  MEOH      1415            0.0000000000
     29327      2107  MEOH      O1             -4.4328786202       24.8306254913      -15.6384734464  MEOH      1415            0.0000000000
     29328      2107  MEOH      DO1            -4.4333110003       24.8192777113      -15.6596599384  MEOH      1415            0.0000000000
     29329      2107  MEOH      HO1            -3.7427983545       25.4435649885      -15.9367927393  MEOH      1415            0.0000000000
     29330      2107  MEOH      HO2            -5.3618445644       24.9027160140      -15.9081496061  MEOH      1415            0.0000000000
     29331      2107  MEOH      H1A            -4.7040281210       22.8340783521      -15.2645722783  MEOH      1415            0.0000000000
     29332      2107  MEOH      H1B            -2.9845245134       23.3459340843      -15.5171945510  MEOH      1415            0.0000000000
     29333      2107  MEOH      H1C            -4.1178990585       23.2270555517      -16.9340554495  MEOH      1415            0.0000000000
     29334      2107  MEOH      LP1A           -4.6082547333       24.9502481955      -15.9167424306  MEOH      1415            0.0000000000
     29335      2107  MEOH      LP1B           -4.3351901725       24.9339119973      -15.3186471421  MEOH      1415            0.0000000000
     29336      2108  MEOH      C1            -11.4981563779       -5.3862688384      -12.8224995696  MEOH      1416            0.0000000000
     29337      2108  MEOH      DC1           -11.5064181121       -5.3983015923      -12.8071598563  MEOH      1416            0.0000000000
     29338      2108  MEOH      O1            -11.1468341950       -4.1160486077      -13.3656998322  MEOH      1416            0.0000000000
     29339      2108  MEOH      DO1           -11.1540697850       -4.1289969641      -13.3557953398  MEOH      1416            0.0000000000
     29340      2108  MEOH      HO1           -10.3590353433       -4.2136419104      -13.9231480514  MEOH      1416            0.0000000000
     29341      2108  MEOH      HO2           -11.9616992496       -3.7434514084      -13.7372725302  MEOH      1416            0.0000000000
     29342      2108  MEOH      H1A           -12.3637531475       -5.2689545382      -12.1359862133  MEOH      1416            0.0000000000
     29343      2108  MEOH      H1B           -10.6408056027       -5.7843488246      -12.2387162427  MEOH      1416            0.0000000000
     29344      2108  MEOH      H1C           -11.7651249452       -6.0877206725      -13.6416540794  MEOH      1416            0.0000000000
     29345      2108  MEOH      LP1A          -11.3134896632       -4.0654435767      -13.6692868637  MEOH      1416            0.0000000000
     29346      2108  MEOH      LP1B          -10.9300600542       -3.9485203522      -13.1478851047  MEOH      1416            0.0000000000
     29347      2109  MEOH      C1             13.6123263543       35.4839935585      -18.4137172551  MEOH      1417            0.0000000000
     29348      2109  MEOH      DC1            13.6154978403       35.5002201921      -18.4038256551  MEOH      1417            0.0000000000
     29349      2109  MEOH      O1             13.8513158214       36.8249700035      -18.0089865928  MEOH      1417            0.0000000000
     29350      2109  MEOH      DO1            13.8538508708       36.8410603449      -17.9995242784  MEOH      1417            0.0000000000
     29351      2109  MEOH      HO1            14.4305745243       36.8063894134      -17.2311600582  MEOH      1417            0.0000000000
     29352      2109  MEOH      HO2            14.0944355983       37.3181700476      -18.8080776330  MEOH      1417            0.0000000000
     29353      2109  MEOH      H1A            12.9182580848       35.4759012796      -19.2811991006  MEOH      1417            0.0000000000
     29354      2109  MEOH      H1B            13.1525521267       34.9178748708      -17.5756013367  MEOH      1417            0.0000000000
     29355      2109  MEOH      H1C            14.5714339934       35.0083667688      -18.7107234742  MEOH      1417            0.0000000000
     29356      2109  MEOH      LP1A           14.1318581384       36.9520120056      -18.1752885413  MEOH      1417            0.0000000000
     29357      2109  MEOH      LP1B           13.6044587708       36.9276385217      -17.7831088119  MEOH      1417            0.0000000000
     29358      2110  MEOH      C1            -16.9767388314      -13.5371190606       -0.1902629155  MEOH      1418            0.0000000000
     29359      2110  MEOH      DC1           -16.9782419451      -13.5324830694       -0.1969025576  MEOH      1418            0.0000000000
     29360      2110  MEOH      O1            -17.3870562467      -14.9041380934       -0.1269373523  MEOH      1418            0.0000000000
     29361      2110  MEOH      DO1           -17.3898263871      -14.9083176793       -0.1428748461  MEOH      1418            0.0000000000
     29362      2110  MEOH      HO1           -18.3447811823      -14.9129613398        0.0266370529  MEOH      1418            0.0000000000
     29363      2110  MEOH      HO2           -16.9828738449      -15.3535865198       -0.8855760668  MEOH      1418            0.0000000000
     29364      2110  MEOH      H1A           -15.8673251465      -13.4822280010       -0.2128294234  MEOH      1418            0.0000000000
     29365      2110  MEOH      H1B           -17.3431172486      -12.9826785912        0.7000649022  MEOH      1418            0.0000000000
     29366      2110  MEOH      H1C           -17.3815919634      -13.0693549169       -1.1130909861  MEOH      1418            0.0000000000
     29367      2110  MEOH      LP1A          -17.4680848167      -15.0197587430       -0.4471969911  MEOH      1418            0.0000000000
     29368      2110  MEOH      LP1B          -17.3639427570      -15.0209354407        0.2021889855  MEOH      1418            0.0000000000
     29369      2111  MEOH      C1             36.7632540436      -32.0491587422       15.7171370918  MEOH      1419            0.0000000000
     29370      2111  MEOH      DC1            36.7764847008      -32.0548546819       15.7175839981  MEOH      1419            0.0000000000
     29371      2111  MEOH      O1             36.1680190682      -33.3405430110       15.8859404688  MEOH      1419            0.0000000000
     29372      2111  MEOH      DO1            36.1798878132      -33.3491470825       15.8970556929  MEOH      1419            0.0000000000
     29373      2111  MEOH      HO1            35.6658683685      -33.3106853120       16.7153096223  MEOH      1419            0.0000000000
     29374      2111  MEOH      HO2            35.6832126759      -33.5054205527       15.0621212171  MEOH      1419            0.0000000000
     29375      2111  MEOH      H1A            37.2769787544      -31.9948672148       14.7335414678  MEOH      1419            0.0000000000
     29376      2111  MEOH      H1B            37.4934690828      -31.8541241282       16.5314272717  MEOH      1419            0.0000000000
     29377      2111  MEOH      H1C            35.9793625941      -31.2619383187       15.7280549959  MEOH      1419            0.0000000000
     29378      2111  MEOH      LP1A           35.8545935367      -33.3491437021       15.7304076287  MEOH      1419            0.0000000000
     29379      2111  MEOH      LP1B           36.3866943713      -33.5513403072       16.0598531243  MEOH      1419            0.0000000000
     29380      2112  MEOH      C1            -33.0848477601      -13.6083256310      -18.4801216574  MEOH      1420            0.0000000000
     29381      2112  MEOH      DC1           -33.0917092449      -13.5998064488      -18.4574147715  MEOH      1420            0.0000000000
     29382      2112  MEOH      O1            -32.8836396367      -13.1677372140      -19.8202204087  MEOH      1420            0.0000000000
     29383      2112  MEOH      DO1           -32.8830484347      -13.1586386936      -19.8049710447  MEOH      1420            0.0000000000
     29384      2112  MEOH      HO1           -33.0121895546      -13.9401446295      -20.3927251716  MEOH      1420            0.0000000000
     29385      2112  MEOH      HO2           -33.4554907557      -12.3911056515      -19.9238047408  MEOH      1420            0.0000000000
     29386      2112  MEOH      H1A           -32.9255195978      -12.7571061659      -17.7841611996  MEOH      1420            0.0000000000
     29387      2112  MEOH      H1B           -32.3749027857      -14.4265368335      -18.2334851603  MEOH      1420            0.0000000000
     29388      2112  MEOH      H1C           -34.1261814392      -13.9818683530      -18.3780873408  MEOH      1420            0.0000000000
     29389      2112  MEOH      LP1A          -33.1857380354      -13.0539447795      -19.9554529468  MEOH      1420            0.0000000000
     29390      2112  MEOH      LP1B          -32.5456537335      -13.1968750611      -19.9063396000  MEOH      1420            0.0000000000
     29391      2113  MEOH      C1            -14.3948533360      -29.1674257550       28.9924625730  MEOH      1421            0.0000000000
     29392      2113  MEOH      DC1           -14.3954525768      -29.1584842513       29.0034885305  MEOH      1421            0.0000000000
     29393      2113  MEOH      O1            -15.4650247704      -29.2288210267       28.0501209533  MEOH      1421            0.0000000000
     29394      2113  MEOH      DO1           -15.4593295354      -29.2281147682       28.0563822590  MEOH      1421            0.0000000000
     29395      2113  MEOH      HO1           -15.8184899317      -30.1320993677       28.0572356560  MEOH      1421            0.0000000000
     29396      2113  MEOH      HO2           -16.0419000602      -28.4742207360       28.2468270830  MEOH      1421            0.0000000000
     29397      2113  MEOH      H1A           -13.8756233438      -28.1885545296       28.9116396948  MEOH      1421            0.0000000000
     29398      2113  MEOH      H1B           -13.6630227936      -29.9774337525       28.7859871471  MEOH      1421            0.0000000000
     29399      2113  MEOH      H1C           -14.8017616189      -29.2835594440       30.0197208733  MEOH      1421            0.0000000000
     29400      2113  MEOH      LP1A          -15.7666353107      -29.1433576490       28.2057715012  MEOH      1421            0.0000000000
     29401      2113  MEOH      LP1B          -15.3413235567      -29.3135050489       27.7338510906  MEOH      1421            0.0000000000
     29402      2114  MEOH      C1             22.9469118110       23.5041779724      -23.4056256141  MEOH      1422            0.0000000000
     29403      2114  MEOH      DC1            22.9471124682       23.5020319648      -23.4036688498  MEOH      1422            0.0000000000
     29404      2114  MEOH      O1             22.2675951449       22.5326725244      -24.1898157350  MEOH      1422            0.0000000000
     29405      2114  MEOH      DO1            22.2638784946       22.5407247700      -24.1822981418  MEOH      1422            0.0000000000
     29406      2114  MEOH      HO1            22.0726446487       21.7450846901      -23.6582146559  MEOH      1422            0.0000000000
     29407      2114  MEOH      HO2            21.5931601015       22.9968677577      -24.7099697106  MEOH      1422            0.0000000000
     29408      2114  MEOH      H1A            23.3069618791       24.3063972608      -24.0846905314  MEOH      1422            0.0000000000
     29409      2114  MEOH      H1B            23.8149983234       23.0452748696      -22.8858614845  MEOH      1422            0.0000000000
     29410      2114  MEOH      H1C            22.2497468349       23.9488430213      -22.6636316851  MEOH      1422            0.0000000000
     29411      2114  MEOH      LP1A           21.9219912542       22.5851701671      -24.1724390769  MEOH      1422            0.0000000000
     29412      2114  MEOH      LP1B           22.4991950191       22.3235598809      -24.3483509065  MEOH      1422            0.0000000000
     29413      2115  MEOH      C1             33.9380531700       -3.2995557810       24.5668952510  MEOH      1423            0.0000000000
     29414      2115  MEOH      DC1            33.9514444253       -3.3026543976       24.5854758184  MEOH      1423            0.0000000000
     29415      2115  MEOH      O1             32.9628186837       -2.3280161518       24.1772474561  MEOH      1423            0.0000000000
     29416      2115  MEOH      DO1            32.9762796258       -2.3150921247       24.1969822549  MEOH      1423            0.0000000000
     29417      2115  MEOH      HO1            32.0663423195       -2.6376365216       24.3806322023  MEOH      1423            0.0000000000
     29418      2115  MEOH      HO2            33.3189780016       -1.4300966631       24.2655148548  MEOH      1423            0.0000000000
     29419      2115  MEOH      H1A            34.8194153946       -3.2116869786       23.8962234217  MEOH      1423            0.0000000000
     29420      2115  MEOH      H1B            33.5174747247       -4.3208432956       24.4468678133  MEOH      1423            0.0000000000
     29421      2115  MEOH      H1C            34.2429513776       -3.1342480680       25.6223721308  MEOH      1423            0.0000000000
     29422      2115  MEOH      LP1A           32.9049188178       -2.1043992452       24.4401981827  MEOH      1423            0.0000000000
     29423      2115  MEOH      LP1B           32.8658898550       -2.3821583205       23.8453236279  MEOH      1423            0.0000000000
     29424      2116  MEOH      C1             13.6684190299      -16.2688838026      -16.2813172561  MEOH      1424            0.0000000000
     29425      2116  MEOH      DC1            13.7029485523      -16.2675155930      -16.2755269342  MEOH      1424            0.0000000000
     29426      2116  MEOH      O1             12.3335894311      -16.3795153623      -15.8018784435  MEOH      1424            0.0000000000
     29427      2116  MEOH      DO1            12.3658468394      -16.3688288578      -15.8092546634  MEOH      1424            0.0000000000
     29428      2116  MEOH      HO1            12.2726546341      -16.5308255535      -14.8456921763  MEOH      1424            0.0000000000
     29429      2116  MEOH      HO2            11.8000202218      -15.7095524110      -16.2572393364  MEOH      1424            0.0000000000
     29430      2116  MEOH      H1A            13.6416749720      -16.4234341795      -17.3811899474  MEOH      1424            0.0000000000
     29431      2116  MEOH      H1B            14.3168965593      -17.0319620682      -15.8001629624  MEOH      1424            0.0000000000
     29432      2116  MEOH      H1C            14.0849453599      -15.2596650291      -16.0756372003  MEOH      1424            0.0000000000
     29433      2116  MEOH      LP1A           12.2106343654      -16.0632697357      -15.7160253394  MEOH      1424            0.0000000000
     29434      2116  MEOH      LP1B           12.2279470315      -16.7128156697      -15.8177084308  MEOH      1424            0.0000000000
     29435      2117  MEOH      C1             12.1651138707       13.0465490762      -17.9371326915  MEOH      1425            0.0000000000
     29436      2117  MEOH      DC1            12.1688124116       13.0465617437      -17.9372852283  MEOH      1425            0.0000000000
     29437      2117  MEOH      O1             12.9542842806       11.9772891945      -17.4397497380  MEOH      1425            0.0000000000
     29438      2117  MEOH      DO1            12.9613466012       11.9713061962      -17.4404663175  MEOH      1425            0.0000000000
     29439      2117  MEOH      HO1            12.8995541346       11.2907334407      -18.1227913239  MEOH      1425            0.0000000000
     29440      2117  MEOH      HO2            13.8135949779       12.3765953800      -17.2322896278  MEOH      1425            0.0000000000
     29441      2117  MEOH      H1A            12.1537420029       13.9029401988      -17.2294703944  MEOH      1425            0.0000000000
     29442      2117  MEOH      H1B            11.1224370741       12.7156495229      -18.1311728509  MEOH      1425            0.0000000000
     29443      2117  MEOH      H1C            12.6421750646       13.3712600450      -18.8864990096  MEOH      1425            0.0000000000
     29444      2117  MEOH      LP1A           13.2868771741       12.0166101393      -17.5414150246  MEOH      1425            0.0000000000
     29445      2117  MEOH      LP1B           12.7571972429       11.7636803140      -17.2447421849  MEOH      1425            0.0000000000
     29446      2118  MEOH      C1             -0.7304865153      -27.6656075210      -31.1271858014  MEOH      1426            0.0000000000
     29447      2118  MEOH      DC1            -0.7241252426      -27.6609153726      -31.1157325927  MEOH      1426            0.0000000000
     29448      2118  MEOH      O1             -0.6386031002      -26.3589104118      -31.6735798844  MEOH      1426            0.0000000000
     29449      2118  MEOH      DO1            -0.6313755566      -26.3569285077      -31.6592173417  MEOH      1426            0.0000000000
     29450      2118  MEOH      HO1            -1.4338899802      -26.2256816480      -32.2127170430  MEOH      1426            0.0000000000
     29451      2118  MEOH      HO2            -0.4695278121      -25.7859981170      -30.9093253133  MEOH      1426            0.0000000000
     29452      2118  MEOH      H1A             0.2196945549      -27.9530993059      -30.6283617756  MEOH      1426            0.0000000000
     29453      2118  MEOH      H1B            -0.9947846454      -28.4101363363      -31.9083031690  MEOH      1426            0.0000000000
     29454      2118  MEOH      H1C            -1.4977721232      -27.6289256257      -30.3245350464  MEOH      1426            0.0000000000
     29455      2118  MEOH      LP1A           -0.7833566005      -26.1272228603      -31.4547939099  MEOH      1426            0.0000000000
     29456      2118  MEOH      LP1B           -0.4683008371      -26.3686555955      -31.9791975713  MEOH      1426            0.0000000000
     29457      2119  MEOH      C1            -20.8766341518      -14.8685932270        9.2050151463  MEOH      1427            0.0000000000
     29458      2119  MEOH      DC1           -20.8603988243      -14.8619874134        9.2026580865  MEOH      1427            0.0000000000
     29459      2119  MEOH      O1            -22.2533774157      -14.6193907131        8.9146033487  MEOH      1427            0.0000000000
     29460      2119  MEOH      DO1           -22.2395646582      -14.6123118708        8.9223436375  MEOH      1427            0.0000000000
     29461      2119  MEOH      HO1           -22.3253601049      -14.0900212297        8.1049821764  MEOH      1427            0.0000000000
     29462      2119  MEOH      HO2           -22.6815074450      -15.4895453896        8.9354724066  MEOH      1427            0.0000000000
     29463      2119  MEOH      H1A           -20.7992169642      -15.5121754020       10.1073064313  MEOH      1427            0.0000000000
     29464      2119  MEOH      H1B           -20.3412034309      -13.9118038733        9.3844282917  MEOH      1427            0.0000000000
     29465      2119  MEOH      H1C           -20.4069397946      -15.4043331364        8.3525534400  MEOH      1427            0.0000000000
     29466      2119  MEOH      LP1A          -22.3823329946      -14.8770190399        8.7158620497  MEOH      1427            0.0000000000
     29467      2119  MEOH      LP1B          -22.3581361492      -14.3259468934        9.0740283545  MEOH      1427            0.0000000000
     29468      2120  MEOH      C1             15.8678894614      -17.3617194535        7.9765062144  MEOH      1428            0.0000000000
     29469      2120  MEOH      DC1            15.8686571389      -17.3609787431        7.9690379431  MEOH      1428            0.0000000000
     29470      2120  MEOH      O1             15.1389559893      -16.9066986994        9.1163986812  MEOH      1428            0.0000000000
     29471      2120  MEOH      DO1            15.1326933796      -16.9033178088        9.1040754158  MEOH      1428            0.0000000000
     29472      2120  MEOH      HO1            15.3956797354      -15.9923940822        9.3139840679  MEOH      1428            0.0000000000
     29473      2120  MEOH      HO2            14.2136379771      -17.1681472003        8.9886048646  MEOH      1428            0.0000000000
     29474      2120  MEOH      H1A            15.7693345615      -18.4654953712        7.8972177727  MEOH      1428            0.0000000000
     29475      2120  MEOH      H1B            16.9434826206      -17.1058268163        8.0857733856  MEOH      1428            0.0000000000
     29476      2120  MEOH      H1C            15.4588398143      -16.8974506489        7.0537636374  MEOH      1428            0.0000000000
     29477      2120  MEOH      LP1A           14.8358018245      -16.7638596112        9.0154306305  MEOH      1428            0.0000000000
     29478      2120  MEOH      LP1B           15.3146048859      -16.9834073636        9.4092523067  MEOH      1428            0.0000000000
     29479      2121  MEOH      C1             -9.9911827436       15.9345084224      -13.2039160132  MEOH      1429            0.0000000000
     29480      2121  MEOH      DC1            -9.9822902415       15.9472484291      -13.2163836186  MEOH      1429            0.0000000000
     29481      2121  MEOH      O1            -10.6977451596       15.5276041210      -14.3802155345  MEOH      1429            0.0000000000
     29482      2121  MEOH      DO1           -10.6979770055       15.5412085520      -14.3833539120  MEOH      1429            0.0000000000
     29483      2121  MEOH      HO1           -10.4612682289       16.1154484531      -15.1146661472  MEOH      1429            0.0000000000
     29484      2121  MEOH      HO2           -10.5469619682       14.5733016375      -14.4666516375  MEOH      1429            0.0000000000
     29485      2121  MEOH      H1A           -10.2528307288       15.2631228201      -12.3582785585  MEOH      1429            0.0000000000
     29486      2121  MEOH      H1B           -10.2657385503       16.9746074925      -12.9261858642  MEOH      1429            0.0000000000
     29487      2121  MEOH      H1C            -8.8954433113       15.8710703683      -13.3761127341  MEOH      1429            0.0000000000
     29488      2121  MEOH      LP1A          -10.5108498776       15.2893336917      -14.5557072895  MEOH      1429            0.0000000000
     29489      2121  MEOH      LP1B          -11.0077745663       15.6893006345      -14.3955779723  MEOH      1429            0.0000000000
     29490      2122  MEOH      C1            -30.9440931005       13.3769227270       -9.5063950122  MEOH      1430            0.0000000000
     29491      2122  MEOH      DC1           -30.9346976247       13.3741149823       -9.5092083726  MEOH      1430            0.0000000000
     29492      2122  MEOH      O1            -29.8068271291       12.6981768838      -10.0425709348  MEOH      1430            0.0000000000
     29493      2122  MEOH      DO1           -29.7980510722       12.6978243665      -10.0476763446  MEOH      1430            0.0000000000
     29494      2122  MEOH      HO1           -29.1726176166       12.6097146771       -9.3139745224  MEOH      1430            0.0000000000
     29495      2122  MEOH      HO2           -30.1634741384       11.8988836511      -10.4607015835  MEOH      1430            0.0000000000
     29496      2122  MEOH      H1A           -31.7048542770       13.5473921079      -10.2979148306  MEOH      1430            0.0000000000
     29497      2122  MEOH      H1B           -30.6495049010       14.3542203179       -9.0677286110  MEOH      1430            0.0000000000
     29498      2122  MEOH      H1C           -31.4097194244       12.7558343605       -8.7115602059  MEOH      1430            0.0000000000
     29499      2122  MEOH      LP1A          -29.8481400320       12.3520563839      -10.0110456504  MEOH      1430            0.0000000000
     29500      2122  MEOH      LP1B          -29.5800931483       12.9300561481      -10.1741904954  MEOH      1430            0.0000000000
     29501      2123  MEOH      C1            -24.9514064407        6.5831930666       29.0852571369  MEOH      1431            0.0000000000
     29502      2123  MEOH      DC1           -24.9663174897        6.5795455230       29.0884147581  MEOH      1431            0.0000000000
     29503      2123  MEOH      O1            -24.1100715865        7.4803539357       29.8015939837  MEOH      1431            0.0000000000
     29504      2123  MEOH      DO1           -24.1170166768        7.4631699173       29.8127742542  MEOH      1431            0.0000000000
     29505      2123  MEOH      HO1           -23.4475230184        7.8089944353       29.1739596810  MEOH      1431            0.0000000000
     29506      2123  MEOH      HO2           -24.7103613098        8.1131873292       30.2259454230  MEOH      1431            0.0000000000
     29507      2123  MEOH      H1A           -25.7720095792        6.2285640671       29.7449311198  MEOH      1431            0.0000000000
     29508      2123  MEOH      H1B           -24.3629671969        5.7233407251       28.6996223259  MEOH      1431            0.0000000000
     29509      2123  MEOH      H1C           -25.4108483960        7.1090917914       28.2211595609  MEOH      1431            0.0000000000
     29510      2123  MEOH      LP1A          -24.2412114513        7.8045483336       29.7874402485  MEOH      1431            0.0000000000
     29511      2123  MEOH      LP1B          -23.8435422914        7.3052079752       29.9457675852  MEOH      1431            0.0000000000
     29512      2124  MEOH      C1             11.6654923917      -23.3227191446      -28.7570634288  MEOH      1432            0.0000000000
     29513      2124  MEOH      DC1            11.6788847825      -23.3281130304      -28.7642933004  MEOH      1432            0.0000000000
     29514      2124  MEOH      O1             11.5684869261      -22.0304612086      -28.1450125393  MEOH      1432            0.0000000000
     29515      2124  MEOH      DO1            11.5834158031      -22.0330265985      -28.1516327796  MEOH      1432            0.0000000000
     29516      2124  MEOH      HO1            11.8017474868      -21.3552082474      -28.8011550155  MEOH      1432            0.0000000000
     29517      2124  MEOH      HO2            10.6909450887      -22.0009086681      -27.7327662874  MEOH      1432            0.0000000000
     29518      2124  MEOH      H1A            11.4642465740      -24.1038663642      -27.9931065304  MEOH      1432            0.0000000000
     29519      2124  MEOH      H1B            12.6879626943      -23.4885378683      -29.1587842664  MEOH      1432            0.0000000000
     29520      2124  MEOH      H1C            10.8960404620      -23.4401098444      -29.5498333532  MEOH      1432            0.0000000000
     29521      2124  MEOH      LP1A           11.2436150410      -21.9052090764      -28.1806518666  MEOH      1432            0.0000000000
     29522      2124  MEOH      LP1B           11.8739724507      -21.9447529943      -27.9972536268  MEOH      1432            0.0000000000
     29523      2125  MEOH      C1            -28.2353569411      -16.5534459128       -5.9743823858  MEOH      1433            0.0000000000
     29524      2125  MEOH      DC1           -28.2406242266      -16.5584488390       -5.9687852686  MEOH      1433            0.0000000000
     29525      2125  MEOH      O1            -27.7619305195      -17.7477215015       -6.6029515159  MEOH      1433            0.0000000000
     29526      2125  MEOH      DO1           -27.7691437714      -17.7546451701       -6.5965502134  MEOH      1433            0.0000000000
     29527      2125  MEOH      HO1           -27.1229152138      -18.1682144779       -6.0065078087  MEOH      1433            0.0000000000
     29528      2125  MEOH      HO2           -28.5458373928      -18.2201590470       -6.9241878466  MEOH      1433            0.0000000000
     29529      2125  MEOH      H1A           -28.8200503213      -15.9575798134       -6.7074568999  MEOH      1433            0.0000000000
     29530      2125  MEOH      H1B           -27.3786336788      -15.9384479032       -5.6249203708  MEOH      1433            0.0000000000
     29531      2125  MEOH      H1C           -28.8876282796      -16.8087764587       -5.1120196927  MEOH      1433            0.0000000000
     29532      2125  MEOH      LP1A          -27.9691381804      -18.0171569321       -6.5194677811  MEOH      1433            0.0000000000
     29533      2125  MEOH      LP1B          -27.4821886432      -17.6760935327       -6.8007239020  MEOH      1433            0.0000000000
     29534      2126  MEOH      C1            -30.7463500059      -22.5580893053       19.4512792760  MEOH      1434            0.0000000000
     29535      2126  MEOH      DC1           -30.7439653029      -22.5522117616       19.4518201832  MEOH      1434            0.0000000000
     29536      2126  MEOH      O1            -31.7603188126      -21.6539039605       19.8942577741  MEOH      1434            0.0000000000
     29537      2126  MEOH      DO1           -31.7484533097      -21.6373366432       19.8853405212  MEOH      1434            0.0000000000
     29538      2126  MEOH      HO1           -32.5558307882      -21.8477065136       19.3741604095  MEOH      1434            0.0000000000
     29539      2126  MEOH      HO2           -31.8013269688      -21.7692824502       20.8564979392  MEOH      1434            0.0000000000
     29540      2126  MEOH      H1A           -29.8313788808      -22.4134314318       20.0646494268  MEOH      1434            0.0000000000
     29541      2126  MEOH      H1B           -30.5095443270      -22.3734925732       18.3816213319  MEOH      1434            0.0000000000
     29542      2126  MEOH      H1C           -31.0875538477      -23.6100750200       19.5572367883  MEOH      1434            0.0000000000
     29543      2126  MEOH      LP1A          -31.9368491918      -21.7939045212       20.1620951655  MEOH      1434            0.0000000000
     29544      2126  MEOH      LP1B          -31.7463001499      -21.3578203251       19.7081450181  MEOH      1434            0.0000000000
     29545      2127  MEOH      C1             -9.7349598510      -15.3218962586       -3.5874223250  MEOH      1435            0.0000000000
     29546      2127  MEOH      DC1            -9.7382801335      -15.3240080547       -3.5861937711  MEOH      1435            0.0000000000
     29547      2127  MEOH      O1             -9.0925900609      -15.4329972827       -4.8605194320  MEOH      1435            0.0000000000
     29548      2127  MEOH      DO1            -9.0880772466      -15.4405516090       -4.8505596142  MEOH      1435            0.0000000000
     29549      2127  MEOH      HO1            -9.7735802425      -15.3976316689       -5.5503756826  MEOH      1435            0.0000000000
     29550      2127  MEOH      HO2            -8.3948456473      -14.7591731615       -4.8568063707  MEOH      1435            0.0000000000
     29551      2127  MEOH      H1A            -8.9726886155      -15.3345750519       -2.7792745582  MEOH      1435            0.0000000000
     29552      2127  MEOH      H1B           -10.4458208663      -16.1612898556       -3.4311661037  MEOH      1435            0.0000000000
     29553      2127  MEOH      H1C           -10.2944555332      -14.3635065226       -3.5347469450  MEOH      1435            0.0000000000
     29554      2127  MEOH      LP1A           -9.0033431876      -15.1154955001       -4.9776843313  MEOH      1435            0.0000000000
     29555      2127  MEOH      LP1B           -9.0641103600      -15.7698327982       -4.9512428698  MEOH      1435            0.0000000000
     29556      2128  MEOH      C1             21.1725122526       12.3150494318      -13.4446990353  MEOH      1436            0.0000000000
     29557      2128  MEOH      DC1            21.1473674923       12.3194722735      -13.4458997450  MEOH      1436            0.0000000000
     29558      2128  MEOH      O1             20.4093433446       13.3671955812      -12.8526670205  MEOH      1436            0.0000000000
     29559      2128  MEOH      DO1            20.3944094086       13.3574287008      -12.8326604251  MEOH      1436            0.0000000000
     29560      2128  MEOH      HO1            21.0355241351       14.0853429635      -12.6708375499  MEOH      1436            0.0000000000
     29561      2128  MEOH      HO2            19.6590449247       13.5279764996      -13.4460486661  MEOH      1436            0.0000000000
     29562      2128  MEOH      H1A            20.5043503081       11.4640036235      -13.6968927075  MEOH      1436            0.0000000000
     29563      2128  MEOH      H1B            21.9578395633       11.9723900402      -12.7374744897  MEOH      1436            0.0000000000
     29564      2128  MEOH      H1C            21.6659526309       12.6737777035      -14.3732202363  MEOH      1436            0.0000000000
     29565      2128  MEOH      LP1A           20.2828457115       13.5780792865      -13.1017180426  MEOH      1436            0.0000000000
     29566      2128  MEOH      LP1B           20.3984224766       13.3262792830      -12.5052384793  MEOH      1436            0.0000000000
     29567      2129  MEOH      C1            -10.4174682632       -1.9003671099       24.0204719075  MEOH      1437            0.0000000000
     29568      2129  MEOH      DC1           -10.4005096987       -1.9067013152       24.0264330405  MEOH      1437            0.0000000000
     29569      2129  MEOH      O1            -10.8273193245       -3.0690808344       23.3152514692  MEOH      1437            0.0000000000
     29570      2129  MEOH      DO1           -10.8204790270       -3.0763221729       23.3307505261  MEOH      1437            0.0000000000
     29571      2129  MEOH      HO1           -10.6110184127       -3.8454954308       23.8549683302  MEOH      1437            0.0000000000
     29572      2129  MEOH      HO2           -11.7427805416       -2.9036282267       23.0405585574  MEOH      1437            0.0000000000
     29573      2129  MEOH      H1A           -10.5979218130       -0.9984040295       23.3973987815  MEOH      1437            0.0000000000
     29574      2129  MEOH      H1B            -9.3326096996       -1.9686156450       24.2501347801  MEOH      1437            0.0000000000
     29575      2129  MEOH      H1C           -11.0025430331       -1.7986613648       24.9594417979  MEOH      1437            0.0000000000
     29576      2129  MEOH      LP1A          -11.1591652573       -3.1467524971       23.3949094235  MEOH      1437            0.0000000000
     29577      2129  MEOH      LP1B          -10.5681247869       -3.1811939891       23.1084935619  MEOH      1437            0.0000000000
     29578      2130  MEOH      C1             30.5083703370      -24.4194783136       12.9562021333  MEOH      1438            0.0000000000
     29579      2130  MEOH      DC1            30.5137343537      -24.4111752491       12.9618420068  MEOH      1438            0.0000000000
     29580      2130  MEOH      O1             30.6935172604      -25.6936234582       13.5751576312  MEOH      1438            0.0000000000
     29581      2130  MEOH      DO1            30.7025558244      -25.6839713271       13.5892889475  MEOH      1438            0.0000000000
     29582      2130  MEOH      HO1            31.5895455063      -26.0082041193       13.3774902564  MEOH      1438            0.0000000000
     29583      2130  MEOH      HO2            30.3376421417      -25.6290345400       14.4752027254  MEOH      1438            0.0000000000
     29584      2130  MEOH      H1A            29.4241742658      -24.1784549359       12.9288596287  MEOH      1438            0.0000000000
     29585      2130  MEOH      H1B            30.8962277003      -24.4387168151       11.9152806442  MEOH      1438            0.0000000000
     29586      2130  MEOH      H1C            31.0427702769      -23.6376925213       13.5371915301  MEOH      1438            0.0000000000
     29587      2130  MEOH      LP1A           30.8155685944      -25.6520391473       13.9005408161  MEOH      1438            0.0000000000
     29588      2130  MEOH      LP1B           30.5918025352      -25.9482766541       13.3576585174  MEOH      1438            0.0000000000
     29589      2131  MEOH      C1              9.2185956088       26.5186381708       34.6234297283  MEOH      1439            0.0000000000
     29590      2131  MEOH      DC1             9.2088306561       26.5035025178       34.6217393933  MEOH      1439            0.0000000000
     29591      2131  MEOH      O1              8.8165374697       27.8149216537       35.0575757396  MEOH      1439            0.0000000000
     29592      2131  MEOH      DO1             8.8015838774       27.8012013067       35.0655051143  MEOH      1439            0.0000000000
     29593      2131  MEOH      HO1             9.6328533895       28.3233785287       35.1840665511  MEOH      1439            0.0000000000
     29594      2131  MEOH      HO2             8.1850495049       28.1153740790       34.3853768913  MEOH      1439            0.0000000000
     29595      2131  MEOH      H1A             8.3221016235       25.9229148917       34.3482328716  MEOH      1439            0.0000000000
     29596      2131  MEOH      H1B             9.7697269495       26.0021402403       35.4381721005  MEOH      1439            0.0000000000
     29597      2131  MEOH      H1C             9.8835932476       26.6083075858       33.7379589281  MEOH      1439            0.0000000000
     29598      2131  MEOH      LP1A            8.7631932291       28.0226104223       34.7809536735  MEOH      1439            0.0000000000
     29599      2131  MEOH      LP1B            8.7913270966       27.8217979266       35.4065988820  MEOH      1439            0.0000000000
     29600      2132  MEOH      C1             21.5624155091      -28.8356722849      -31.8056436652  MEOH      1440            0.0000000000
     29601      2132  MEOH      DC1            21.5440769664      -28.8489980961      -31.8048813286  MEOH      1440            0.0000000000
     29602      2132  MEOH      O1             22.8249317444      -28.1932144412      -31.9532210838  MEOH      1440            0.0000000000
     29603      2132  MEOH      DO1            22.8043335225      -28.2068979727      -31.9600660942  MEOH      1440            0.0000000000
     29604      2132  MEOH      HO1            23.3477083712      -28.6257911710      -32.6463891528  MEOH      1440            0.0000000000
     29605      2132  MEOH      HO2            22.6321777970      -27.2443736023      -32.0119320546  MEOH      1440            0.0000000000
     29606      2132  MEOH      H1A            21.0476847494      -28.4246781405      -30.9109610062  MEOH      1440            0.0000000000
     29607      2132  MEOH      H1B            21.7171941645      -29.9270309793      -31.6667164569  MEOH      1440            0.0000000000
     29608      2132  MEOH      H1C            20.9340530800      -28.6544991740      -32.7037850581  MEOH      1440            0.0000000000
     29609      2132  MEOH      LP1A           22.8002340125      -27.9326934062      -32.1856405587  MEOH      1440            0.0000000000
     29610      2132  MEOH      LP1B           23.0590604069      -28.3383337432      -31.7372948056  MEOH      1440            0.0000000000
     29611      2133  MEOH      C1            -13.3017492874      -27.8674001029      -13.6647208497  MEOH      1441            0.0000000000
     29612      2133  MEOH      DC1           -13.3089163292      -27.8719010699      -13.6489329124  MEOH      1441            0.0000000000
     29613      2133  MEOH      O1            -12.7228679074      -27.9720702866      -14.9666441395  MEOH      1441            0.0000000000
     29614      2133  MEOH      DO1           -12.7278798164      -27.9765527754      -14.9567701461  MEOH      1441            0.0000000000
     29615      2133  MEOH      HO1           -12.6407529636      -27.0794870065      -15.3373896373  MEOH      1441            0.0000000000
     29616      2133  MEOH      HO2           -11.9475427775      -28.5474338535      -14.8732219255  MEOH      1441            0.0000000000
     29617      2133  MEOH      H1A           -13.5569146848      -28.8856254368      -13.3008131829  MEOH      1441            0.0000000000
     29618      2133  MEOH      H1B           -14.2300595356      -27.2582660491      -13.7036668085  MEOH      1441            0.0000000000
     29619      2133  MEOH      H1C           -12.5801156198      -27.3997136630      -12.9612755817  MEOH      1441            0.0000000000
     29620      2133  MEOH      LP1A          -12.3738355454      -27.9596139696      -14.9438132302  MEOH      1441            0.0000000000
     29621      2133  MEOH      LP1B          -12.9743706417      -28.0134776098      -15.2065020313  MEOH      1441            0.0000000000
     29622      2134  MEOH      C1             29.3752392684       35.0579225321        0.7695015625  MEOH      1442            0.0000000000
     29623      2134  MEOH      DC1            29.3798698249       35.0675793625        0.7624462628  MEOH      1442            0.0000000000
     29624      2134  MEOH      O1             29.8985004191       36.3867584187        0.7328345072  MEOH      1442            0.0000000000
     29625      2134  MEOH      DO1            29.8874294891       36.4037372769        0.7423776332  MEOH      1442            0.0000000000
     29626      2134  MEOH      HO1            29.6022647955       36.8161233655       -0.0849614320  MEOH      1442            0.0000000000
     29627      2134  MEOH      HO2            29.7462805587       36.7726032952        1.6096770503  MEOH      1442            0.0000000000
     29628      2134  MEOH      H1A            29.7848377514       34.5198373807        1.6509857959  MEOH      1442            0.0000000000
     29629      2134  MEOH      H1B            29.6769479041       34.4973255882       -0.1410059696  MEOH      1442            0.0000000000
     29630      2134  MEOH      H1C            28.2667121043       35.0809660707        0.8399112339  MEOH      1442            0.0000000000
     29631      2134  MEOH      LP1A           29.6765178546       36.6071958885        0.8897773726  MEOH      1442            0.0000000000
     29632      2134  MEOH      LP1B           30.2133035320       36.3872721520        0.5798680527  MEOH      1442            0.0000000000
     29633      2135  MEOH      C1            -21.8114986731      -16.7150960444      -14.7579586016  MEOH      1443            0.0000000000
     29634      2135  MEOH      DC1           -21.8235099085      -16.7120192640      -14.7504491687  MEOH      1443            0.0000000000
     29635      2135  MEOH      O1            -20.4761144339      -17.1614957144      -14.9923669868  MEOH      1443            0.0000000000
     29636      2135  MEOH      DO1           -20.4791757626      -17.1498606413      -14.9861851803  MEOH      1443            0.0000000000
     29637      2135  MEOH      HO1           -20.0070417527      -17.1447101178      -14.1434918114  MEOH      1443            0.0000000000
     29638      2135  MEOH      HO2           -20.5627221664      -17.9986320658      -15.4746551077  MEOH      1443            0.0000000000
     29639      2135  MEOH      H1A           -22.3593274094      -16.6736228153      -15.7236110481  MEOH      1443            0.0000000000
     29640      2135  MEOH      H1B           -21.7973526995      -15.7018816120      -14.3024178182  MEOH      1443            0.0000000000
     29641      2135  MEOH      H1C           -22.3326661296      -17.4305347635      -14.0865027784  MEOH      1443            0.0000000000
     29642      2135  MEOH      LP1A          -20.4587947213      -17.5095484823      -14.9598201240  MEOH      1443            0.0000000000
     29643      2135  MEOH      LP1B          -20.2718612884      -16.8896675290      -15.0753735540  MEOH      1443            0.0000000000
     29644      2136  MEOH      C1             30.2894445378        0.9526469268        0.3697939075  MEOH      1444            0.0000000000
     29645      2136  MEOH      DC1            30.2772741487        0.9398922417        0.3685827043  MEOH      1444            0.0000000000
     29646      2136  MEOH      O1             31.1505415262        2.0875202958        0.3382398213  MEOH      1444            0.0000000000
     29647      2136  MEOH      DO1            31.1450534365        2.0743722103        0.3423522970  MEOH      1444            0.0000000000
     29648      2136  MEOH      HO1            31.8816655162        1.8939870129       -0.2691336879  MEOH      1444            0.0000000000
     29649      2136  MEOH      HO2            30.5726901989        2.8461350573        0.1607814098  MEOH      1444            0.0000000000
     29650      2136  MEOH      H1A            29.4709514609        1.1308083818        1.0996216823  MEOH      1444            0.0000000000
     29651      2136  MEOH      H1B            30.8623710831        0.0532231946        0.6814236950  MEOH      1444            0.0000000000
     29652      2136  MEOH      H1C            29.8489306757        0.7909136083       -0.6372368125  MEOH      1444            0.0000000000
     29653      2136  MEOH      LP1A           31.0454172282        2.3106832448        0.0899513194  MEOH      1444            0.0000000000
     29654      2136  MEOH      LP1B           31.3935089699        2.0604324017        0.5887055221  MEOH      1444            0.0000000000
     29655      2137  MEOH      C1            -32.0970678264       -1.8704683304       29.2026219525  MEOH      1445            0.0000000000
     29656      2137  MEOH      DC1           -32.0950631382       -1.8812493642       29.2004197905  MEOH      1445            0.0000000000
     29657      2137  MEOH      O1            -31.6221598520       -3.1908403971       29.4749453373  MEOH      1445            0.0000000000
     29658      2137  MEOH      DO1           -31.6084403020       -3.2001548522       29.4745011052  MEOH      1445            0.0000000000
     29659      2137  MEOH      HO1           -32.1460478789       -3.5277284122       30.2185499369  MEOH      1445            0.0000000000
     29660      2137  MEOH      HO2           -31.6024161911       -3.6506396857       28.6210748534  MEOH      1445            0.0000000000
     29661      2137  MEOH      H1A           -31.4697429990       -1.3928586023       28.4198873171  MEOH      1445            0.0000000000
     29662      2137  MEOH      H1B           -32.0478459438       -1.2543195864       30.1258006630  MEOH      1445            0.0000000000
     29663      2137  MEOH      H1C           -33.1473788748       -1.9135546766       28.8430231895  MEOH      1445            0.0000000000
     29664      2137  MEOH      LP1A          -31.7989889053       -3.4237055362       29.2825776870  MEOH      1445            0.0000000000
     29665      2137  MEOH      LP1B          -31.3581671308       -3.1781532832       29.7043944172  MEOH      1445            0.0000000000
     29666      2138  MEOH      C1             34.4146148502      -11.9158879414       35.8344115158  MEOH      1446            0.0000000000
     29667      2138  MEOH      DC1            34.4151871971      -11.9165970348       35.8307582068  MEOH      1446            0.0000000000
     29668      2138  MEOH      O1             34.7955680173      -11.5167402413       37.1478583700  MEOH      1446            0.0000000000
     29669      2138  MEOH      DO1            34.7972812150      -11.5197791858       37.1455486582  MEOH      1446            0.0000000000
     29670      2138  MEOH      HO1            35.5103887146      -10.8676591333       37.0549870292  MEOH      1446            0.0000000000
     29671      2138  MEOH      HO2            33.9691301799      -11.2613657259       37.5868166351  MEOH      1446            0.0000000000
     29672      2138  MEOH      H1A            33.6279568613      -12.6982125732       35.8932195074  MEOH      1446            0.0000000000
     29673      2138  MEOH      H1B            35.2880347723      -12.3350930161       35.2906047992  MEOH      1446            0.0000000000
     29674      2138  MEOH      H1C            34.0080102946      -11.0476126065       35.2730812399  MEOH      1446            0.0000000000
     29675      2138  MEOH      LP1A           34.6019808590      -11.2439872997       37.2509595095  MEOH      1446            0.0000000000
     29676      2138  MEOH      LP1B           35.0452701236      -11.7294605150       37.2699195976  MEOH      1446            0.0000000000
     29677      2139  MEOH      C1              2.7934266291      -20.1598778520       35.9028823896  MEOH      1447            0.0000000000
     29678      2139  MEOH      DC1             2.7775211666      -20.1749531734       35.9311148905  MEOH      1447            0.0000000000
     29679      2139  MEOH      O1              3.8771797396      -19.3169065949       35.5723972316  MEOH      1447            0.0000000000
     29680      2139  MEOH      DO1             3.8587787903      -19.3355185874       35.6234046057  MEOH      1447            0.0000000000
     29681      2139  MEOH      HO1             3.6080674005      -18.4869287912       35.1485866658  MEOH      1447            0.0000000000
     29682      2139  MEOH      HO2             4.5560784964      -19.3765932527       36.2626392043  MEOH      1447            0.0000000000
     29683      2139  MEOH      H1A             3.2040622024      -21.1867594959       36.0087762835  MEOH      1447            0.0000000000
     29684      2139  MEOH      H1B             2.0484092176      -20.1524045209       35.0787378595  MEOH      1447            0.0000000000
     29685      2139  MEOH      H1C             2.3272463943      -19.8282510983       36.8552587253  MEOH      1447            0.0000000000
     29686      2139  MEOH      LP1A            3.9509739180      -19.1057101984       35.8415635395  MEOH      1447            0.0000000000
     29687      2139  MEOH      LP1B            3.9944368061      -19.3929194519       35.2515034393  MEOH      1447            0.0000000000
     29688      2140  MEOH      C1             15.0491985649       34.5613490746        4.0801912256  MEOH      1448            0.0000000000
     29689      2140  MEOH      DC1            15.0612366730       34.5777673272        4.0893304523  MEOH      1448            0.0000000000
     29690      2140  MEOH      O1             14.8307004119       33.2384211772        4.5508731811  MEOH      1448            0.0000000000
     29691      2140  MEOH      DO1            14.8525576666       33.2435642276        4.5608429719  MEOH      1448            0.0000000000
     29692      2140  MEOH      HO1            13.8837493763       33.1646191557        4.7476903491  MEOH      1448            0.0000000000
     29693      2140  MEOH      HO2            15.1856513467       32.6605442585        3.8573545429  MEOH      1448            0.0000000000
     29694      2140  MEOH      H1A            16.1113482375       34.6741452127        3.7745180264  MEOH      1448            0.0000000000
     29695      2140  MEOH      H1B            14.8032170801       35.2884266062        4.8834174529  MEOH      1448            0.0000000000
     29696      2140  MEOH      H1C            14.4042526491       34.7398665664        3.1933444113  MEOH      1448            0.0000000000
     29697      2140  MEOH      LP1A           14.7616680413       33.0255027875        4.2818001591  MEOH      1448            0.0000000000
     29698      2140  MEOH      LP1B           14.8740936197       33.2261552330        4.8979561339  MEOH      1448            0.0000000000
     29699      2141  MEOH      C1             12.2659208903        3.9290821723      -17.6031125411  MEOH      1449            0.0000000000
     29700      2141  MEOH      DC1            12.2749743165        3.9524456038      -17.6028031395  MEOH      1449            0.0000000000
     29701      2141  MEOH      O1             12.5919650770        5.2929914270      -17.3182680000  MEOH      1449            0.0000000000
     29702      2141  MEOH      DO1            12.6040280415        5.3192024116      -17.3170110441  MEOH      1449            0.0000000000
     29703      2141  MEOH      HO1            13.0244300053        5.6159549106      -18.1242262340  MEOH      1449            0.0000000000
     29704      2141  MEOH      HO2            11.7686170697        5.6944895238      -16.9992110504  MEOH      1449            0.0000000000
     29705      2141  MEOH      H1A            11.8198162439        3.4424041806      -16.7095487903  MEOH      1449            0.0000000000
     29706      2141  MEOH      H1B            13.1808289868        3.3698324315      -17.8938080930  MEOH      1449            0.0000000000
     29707      2141  MEOH      H1C            11.5334144408        3.8760822160      -18.4367469375  MEOH      1449            0.0000000000
     29708      2141  MEOH      LP1A           12.3251854235        5.5010737143      -17.4078803772  MEOH      1449            0.0000000000
     29709      2141  MEOH      LP1B           12.9086891271        5.3120190881      -17.1705391124  MEOH      1449            0.0000000000
     29710      2142  MEOH      C1             15.1958265965      -28.6904354084      -33.2755890496  MEOH      1450            0.0000000000
     29711      2142  MEOH      DC1            15.1955761428      -28.6881563053      -33.2572917320  MEOH      1450            0.0000000000
     29712      2142  MEOH      O1             16.4097977435      -29.1627605698      -32.6835746775  MEOH      1450            0.0000000000
     29713      2142  MEOH      DO1            16.4126250209      -29.1622422424      -32.6704031280  MEOH      1450            0.0000000000
     29714      2142  MEOH      HO1            16.1868397766      -29.9650897965      -32.1861236165  MEOH      1450            0.0000000000
     29715      2142  MEOH      HO2            17.0516614568      -29.2051847667      -33.4095988927  MEOH      1450            0.0000000000
     29716      2142  MEOH      H1A            15.4019354634      -27.7566917007      -33.8412416158  MEOH      1450            0.0000000000
     29717      2142  MEOH      H1B            14.4491576817      -28.4669790108      -32.4838354448  MEOH      1450            0.0000000000
     29718      2142  MEOH      H1C            14.7863495431      -29.4412362853      -33.9847770261  MEOH      1450            0.0000000000
     29719      2142  MEOH      LP1A           16.5736460060      -29.3800866992      -32.9036271720  MEOH      1450            0.0000000000
     29720      2142  MEOH      LP1B           16.4547876263      -29.0156925987      -32.3691753735  MEOH      1450            0.0000000000
     29721      2143  MEOH      C1            -31.7259313603       -3.1141244334      -10.3930427090  MEOH      1451            0.0000000000
     29722      2143  MEOH      DC1           -31.7240392522       -3.1279646673      -10.3884794465  MEOH      1451            0.0000000000
     29723      2143  MEOH      O1            -32.7468596569       -3.9641028615      -10.9227974467  MEOH      1451            0.0000000000
     29724      2143  MEOH      DO1           -32.7408531653       -3.9766639771      -10.9181343724  MEOH      1451            0.0000000000
     29725      2143  MEOH      HO1           -33.0354335071       -4.5625125286      -10.2160223741  MEOH      1451            0.0000000000
     29726      2143  MEOH      HO2           -33.3994557924       -3.3624878348      -11.3140488291  MEOH      1451            0.0000000000
     29727      2143  MEOH      H1A           -31.4073778301       -2.3893019348      -11.1724508142  MEOH      1451            0.0000000000
     29728      2143  MEOH      H1B           -30.8437062251       -3.7140972216      -10.0831516569  MEOH      1451            0.0000000000
     29729      2143  MEOH      H1C           -32.1163296872       -2.5434220243       -9.5234399791  MEOH      1451            0.0000000000
     29730      2143  MEOH      LP1A          -33.0605992019       -3.8146777842      -10.8810884048  MEOH      1451            0.0000000000
     29731      2143  MEOH      LP1B          -32.6030981367       -4.2505868424      -11.0633661274  MEOH      1451            0.0000000000
     29732      2144  MEOH      C1             17.9497155836      -33.1577791344       31.1497601754  MEOH      1452            0.0000000000
     29733      2144  MEOH      DC1            17.9539615624      -33.1472487573       31.1701508344  MEOH      1452            0.0000000000
     29734      2144  MEOH      O1             16.7824906733      -33.9668120812       31.0234827605  MEOH      1452            0.0000000000
     29735      2144  MEOH      DO1            16.7817291045      -33.9552300184       31.0577197223  MEOH      1452            0.0000000000
     29736      2144  MEOH      HO1            16.4335294122      -33.8369095141       30.1277979045  MEOH      1452            0.0000000000
     29737      2144  MEOH      HO2            17.0673431056      -34.8609732230       31.2689108477  MEOH      1452            0.0000000000
     29738      2144  MEOH      H1A            18.4628197428      -33.3905208137       32.1072968235  MEOH      1452            0.0000000000
     29739      2144  MEOH      H1B            17.6665717019      -32.0838456982       31.1211678924  MEOH      1452            0.0000000000
     29740      2144  MEOH      H1C            18.6448642172      -33.3857720297       30.3136330215  MEOH      1452            0.0000000000
     29741      2144  MEOH      LP1A           16.8699026466      -34.2861936091       30.9101046914  MEOH      1452            0.0000000000
     29742      2144  MEOH      LP1B           16.5004538255      -33.7869428274       31.1264500760  MEOH      1452            0.0000000000
     29743      2145  MEOH      C1             -4.1868130061      -11.2011987208       -7.2093049189  MEOH      1453            0.0000000000
     29744      2145  MEOH      DC1            -4.1862770928      -11.2058920863       -7.2064111785  MEOH      1453            0.0000000000
     29745      2145  MEOH      O1             -4.7983055498      -10.3057825473       -6.2834708845  MEOH      1453            0.0000000000
     29746      2145  MEOH      DO1            -4.7902468599      -10.3023667173       -6.2711464835  MEOH      1453            0.0000000000
     29747      2145  MEOH      HO1            -4.3165761276       -9.4676303688       -6.3630805031  MEOH      1453            0.0000000000
     29748      2145  MEOH      HO2            -5.7437629551      -10.3261523845       -6.4993304786  MEOH      1453            0.0000000000
     29749      2145  MEOH      H1A            -4.7333063084      -12.1684538946       -7.2184427419  MEOH      1453            0.0000000000
     29750      2145  MEOH      H1B            -3.1360678253      -11.3815484364       -6.8966876685  MEOH      1453            0.0000000000
     29751      2145  MEOH      H1C            -4.2068999883      -10.7663641787       -8.2314773290  MEOH      1453            0.0000000000
     29752      2145  MEOH      LP1A           -5.0629425154      -10.1364281102       -6.4376991279  MEOH      1453            0.0000000000
     29753      2145  MEOH      LP1B           -4.6436969789      -10.3330292835       -5.9706549559  MEOH      1453            0.0000000000
     29754      2146  MEOH      C1            -13.4373443887      -36.5024749899       18.1701003259  MEOH      1454            0.0000000000
     29755      2146  MEOH      DC1           -13.4369738543      -36.4937903620       18.1732515905  MEOH      1454            0.0000000000
     29756      2146  MEOH      O1            -12.5384614514      -36.3009061836       19.2641374647  MEOH      1454            0.0000000000
     29757      2146  MEOH      DO1           -12.5450270184      -36.2955351242       19.2747928436  MEOH      1454            0.0000000000
     29758      2146  MEOH      HO1           -12.5215466883      -37.1446540547       19.7423669293  MEOH      1454            0.0000000000
     29759      2146  MEOH      HO2           -11.7100095906      -35.9996816853       18.8593766504  MEOH      1454            0.0000000000
     29760      2146  MEOH      H1A           -13.6091052146      -35.5487362648       17.6267756873  MEOH      1454            0.0000000000
     29761      2146  MEOH      H1B           -14.4057319082      -36.8974867247       18.5449500872  MEOH      1454            0.0000000000
     29762      2146  MEOH      H1C           -12.9972575848      -37.2334512259       17.4585398237  MEOH      1454            0.0000000000
     29763      2146  MEOH      LP1A          -12.2116872736      -36.3797717894       19.1666754056  MEOH      1454            0.0000000000
     29764      2146  MEOH      LP1B          -12.7129866509      -36.1774956908       19.5412850878  MEOH      1454            0.0000000000
     29765      2147  MEOH      C1            -17.4464578505        6.4236380503      -13.8411753075  MEOH      1455            0.0000000000
     29766      2147  MEOH      DC1           -17.4508423349        6.4203859895      -13.8389459928  MEOH      1455            0.0000000000
     29767      2147  MEOH      O1            -18.7954453058        6.1509898401      -13.4481278843  MEOH      1455            0.0000000000
     29768      2147  MEOH      DO1           -18.7941020423        6.1483219546      -13.4463582486  MEOH      1455            0.0000000000
     29769      2147  MEOH      HO1           -19.0439977507        6.7783078924      -12.7512823178  MEOH      1455            0.0000000000
     29770      2147  MEOH      HO2           -19.3099510170        6.1073980089      -14.2692756337  MEOH      1455            0.0000000000
     29771      2147  MEOH      H1A           -17.0942057411        5.6435571375      -14.5494924841  MEOH      1455            0.0000000000
     29772      2147  MEOH      H1B           -16.7593568251        6.3952481789      -12.9685888094  MEOH      1455            0.0000000000
     29773      2147  MEOH      H1C           -17.3800571581        7.4213908741      -14.3253253366  MEOH      1455            0.0000000000
     29774      2147  MEOH      LP1A          -19.0174897977        6.3341720980      -13.6472271159  MEOH      1455            0.0000000000
     29775      2147  MEOH      LP1B          -18.7995465623        5.9136498320      -13.1909258232  MEOH      1455            0.0000000000
     29776      2148  MEOH      C1             35.5258209738       14.6891227394      -23.2603128555  MEOH      1456            0.0000000000
     29777      2148  MEOH      DC1            35.5320165070       14.6932927461      -23.2354052597  MEOH      1456            0.0000000000
     29778      2148  MEOH      O1             36.5544137719       14.1019891674      -22.4620825410  MEOH      1456            0.0000000000
     29779      2148  MEOH      DO1            36.5585886681       14.0971754959      -22.4514847656  MEOH      1456            0.0000000000
     29780      2148  MEOH      HO1            36.5525241351       13.1607582926      -22.6965625422  MEOH      1456            0.0000000000
     29781      2148  MEOH      HO2            37.3479792085       14.6345061641      -22.6281534474  MEOH      1456            0.0000000000
     29782      2148  MEOH      H1A            35.4497721690       15.7754391007      -23.0401893828  MEOH      1456            0.0000000000
     29783      2148  MEOH      H1B            34.5475208732       14.2103633844      -23.0411339488  MEOH      1456            0.0000000000
     29784      2148  MEOH      H1C            35.7515292657       14.5575676890      -24.3401600846  MEOH      1456            0.0000000000
     29785      2148  MEOH      LP1A           36.8604341389       14.1168653668      -22.6312872502  MEOH      1456            0.0000000000
     29786      2148  MEOH      LP1B           36.4230850962       13.9989539274      -22.1544520511  MEOH      1456            0.0000000000
     29787      2149  MEOH      C1            -33.3609907194      -29.6645487370       -8.6938061302  MEOH      1457            0.0000000000
     29788      2149  MEOH      DC1           -33.3501174598      -29.6762032416       -8.6853740786  MEOH      1457            0.0000000000
     29789      2149  MEOH      O1            -34.5193593271      -28.9609080900       -9.1494112334  MEOH      1457            0.0000000000
     29790      2149  MEOH      DO1           -34.5196048761      -28.9634375046       -9.1411429959  MEOH      1457            0.0000000000
     29791      2149  MEOH      HO1           -35.1466418777      -29.6097815287       -9.5049106888  MEOH      1457            0.0000000000
     29792      2149  MEOH      HO2           -34.7678592187      -28.3496528733       -8.4384155485  MEOH      1457            0.0000000000
     29793      2149  MEOH      H1A           -32.5716031410      -28.9237853839       -8.4438903326  MEOH      1457            0.0000000000
     29794      2149  MEOH      H1B           -32.9697447305      -30.3219842662       -9.4994276935  MEOH      1457            0.0000000000
     29795      2149  MEOH      H1C           -33.6011624057      -30.2582680988       -7.7859868302  MEOH      1457            0.0000000000
     29796      2149  MEOH      LP1A          -34.7501298245      -28.9284726502       -8.8882734924  MEOH      1457            0.0000000000
     29797      2149  MEOH      LP1B          -34.4777805041      -28.8655936392       -9.4836063216  MEOH      1457            0.0000000000
     29798      2150  MEOH      C1              2.5965729698      -23.8414529455      -27.3287624935  MEOH      1458            0.0000000000
     29799      2150  MEOH      DC1             2.5922373361      -23.8417610667      -27.3427206706  MEOH      1458            0.0000000000
     29800      2150  MEOH      O1              1.5626507623      -22.8777142499      -27.1110149063  MEOH      1458            0.0000000000
     29801      2150  MEOH      DO1             1.5544588164      -22.8834444598      -27.1287948963  MEOH      1458            0.0000000000
     29802      2150  MEOH      HO1             1.0900133467      -23.1525164799      -26.3097673741  MEOH      1458            0.0000000000
     29803      2150  MEOH      HO2             2.0187794819      -22.0219263605      -27.0892507024  MEOH      1458            0.0000000000
     29804      2150  MEOH      H1A             3.2397865741      -23.5281725072      -28.1787346271  MEOH      1458            0.0000000000
     29805      2150  MEOH      H1B             2.1535030905      -24.8339906964      -27.5587166113  MEOH      1458            0.0000000000
     29806      2150  MEOH      H1C             3.2277444824      -23.9258713632      -26.4183685939  MEOH      1458            0.0000000000
     29807      2150  MEOH      LP1A            1.6836888134      -22.6146413972      -26.9144380400  MEOH      1458            0.0000000000
     29808      2150  MEOH      LP1B            1.2718754215      -22.9737333329      -27.2805142777  MEOH      1458            0.0000000000
     29809      2151  MEOH      C1            -27.6840399570      -29.2599992940       22.4211334704  MEOH      1459            0.0000000000
     29810      2151  MEOH      DC1           -27.6798757237      -29.2723853164       22.4094662130  MEOH      1459            0.0000000000
     29811      2151  MEOH      O1            -28.8463886912      -30.0286133101       22.1037464667  MEOH      1459            0.0000000000
     29812      2151  MEOH      DO1           -28.8497863058      -30.0440140762       22.0966664622  MEOH      1459            0.0000000000
     29813      2151  MEOH      HO1           -29.3120254621      -29.5149538084       21.4253392779  MEOH      1459            0.0000000000
     29814      2151  MEOH      HO2           -28.5324643738      -30.9278049446       21.9198825807  MEOH      1459            0.0000000000
     29815      2151  MEOH      H1A           -27.1288878536      -29.7218491241       23.2654212628  MEOH      1459            0.0000000000
     29816      2151  MEOH      H1B           -27.9750508177      -28.2319756694       22.7257662137  MEOH      1459            0.0000000000
     29817      2151  MEOH      H1C           -27.0246946144      -29.2080145639       21.5284508237  MEOH      1459            0.0000000000
     29818      2151  MEOH      LP1A          -28.7739670927      -30.2544226792       21.8463261083  MEOH      1459            0.0000000000
     29819      2151  MEOH      LP1B          -29.1103403229      -29.9395271450       22.3156266009  MEOH      1459            0.0000000000
     29820      2152  MEOH      C1              3.9299286580       10.9960543010      -34.0000388241  MEOH      1460            0.0000000000
     29821      2152  MEOH      DC1             3.9626208004       10.9998584855      -33.9988268449  MEOH      1460            0.0000000000
     29822      2152  MEOH      O1              5.1125205054       10.3655909748      -33.5411422487  MEOH      1460            0.0000000000
     29823      2152  MEOH      DO1             5.1423407823       10.3775819181      -33.5302683315  MEOH      1460            0.0000000000
     29824      2152  MEOH      HO1             4.8019104021        9.4973378821      -33.2402137985  MEOH      1460            0.0000000000
     29825      2152  MEOH      HO2             5.7207129311       10.4082547168      -34.2955836171  MEOH      1460            0.0000000000
     29826      2152  MEOH      H1A             4.1542401327       11.9950659251      -34.4312941287  MEOH      1460            0.0000000000
     29827      2152  MEOH      H1B             3.1871224305       11.1538033783      -33.1890671003  MEOH      1460            0.0000000000
     29828      2152  MEOH      H1C             3.4665845259       10.3418677074      -34.7692417346  MEOH      1460            0.0000000000
     29829      2152  MEOH      LP1A            5.2668329884       10.1943712227      -33.8045268612  MEOH      1460            0.0000000000
     29830      2152  MEOH      LP1B            5.1641413860       10.4396009177      -33.2029739281  MEOH      1460            0.0000000000
     29831      2153  MEOH      C1             27.8776862650       30.2063660619      -32.1251041795  MEOH      1461            0.0000000000
     29832      2153  MEOH      DC1            27.8691002176       30.2176924704      -32.1247431070  MEOH      1461            0.0000000000
     29833      2153  MEOH      O1             26.9989786811       29.1925129251      -31.6452837409  MEOH      1461            0.0000000000
     29834      2153  MEOH      DO1            26.9895265142       29.1983340832      -31.6408568875  MEOH      1461            0.0000000000
     29835      2153  MEOH      HO1            26.2292832190       29.1971066035      -32.2355784092  MEOH      1461            0.0000000000
     29836      2153  MEOH      HO2            27.5467831315       28.3939560557      -31.5894517558  MEOH      1461            0.0000000000
     29837      2153  MEOH      H1A            28.8069130848       30.2215131979      -31.5163110435  MEOH      1461            0.0000000000
     29838      2153  MEOH      H1B            27.3700341780       31.1923748566      -32.0587941859  MEOH      1461            0.0000000000
     29839      2153  MEOH      H1C            28.1569625690       30.0098585837      -33.1823224913  MEOH      1461            0.0000000000
     29840      2153  MEOH      LP1A           27.0766911262       28.8859577022      -31.7952326362  MEOH      1461            0.0000000000
     29841      2153  MEOH      LP1B           26.7810397719       29.3262663766      -31.4063012184  MEOH      1461            0.0000000000
     29842      2154  MEOH      C1            -11.1439899542      -15.4449096755       10.2163390817  MEOH      1462            0.0000000000
     29843      2154  MEOH      DC1           -11.1724267896      -15.4528715389       10.1881672714  MEOH      1462            0.0000000000
     29844      2154  MEOH      O1            -11.1310865029      -16.5828452191        9.3554382985  MEOH      1462            0.0000000000
     29845      2154  MEOH      DO1           -11.1608966780      -16.5908744908        9.3340533340  MEOH      1462            0.0000000000
     29846      2154  MEOH      HO1           -10.7787472663      -17.2977729052        9.9082813744  MEOH      1462            0.0000000000
     29847      2154  MEOH      HO2           -11.9981435902      -16.6221325938        8.9223464957  MEOH      1462            0.0000000000
     29848      2154  MEOH      H1A           -11.3125951380      -14.5004359022        9.6561046808  MEOH      1462            0.0000000000
     29849      2154  MEOH      H1B           -10.1512477960      -15.3622234582       10.7082201615  MEOH      1462            0.0000000000
     29850      2154  MEOH      H1C           -11.9270540029      -15.5672480372       10.9949050856  MEOH      1462            0.0000000000
     29851      2154  MEOH      LP1A          -11.4372960462      -16.7512287848        9.3750007725  MEOH      1462            0.0000000000
     29852      2154  MEOH      LP1B          -10.8269890214      -16.5989867998        9.1829153403  MEOH      1462            0.0000000000
     29853      2155  MEOH      C1              2.1203645415       31.5343381197       31.2647680802  MEOH      1463            0.0000000000
     29854      2155  MEOH      DC1             2.1185299752       31.5185344684       31.2697166057  MEOH      1463            0.0000000000
     29855      2155  MEOH      O1              1.8507746077       30.1820936517       31.6389967102  MEOH      1463            0.0000000000
     29856      2155  MEOH      DO1             1.8412370325       30.1674194610       31.6501978231  MEOH      1463            0.0000000000
     29857      2155  MEOH      HO1             0.8853153468       30.0953752076       31.6033831172  MEOH      1463            0.0000000000
     29858      2155  MEOH      HO2             2.4213289223       29.6301071653       31.0816111229  MEOH      1463            0.0000000000
     29859      2155  MEOH      H1A             3.2078044955       31.7484962618       31.3417852130  MEOH      1463            0.0000000000
     29860      2155  MEOH      H1B             1.5777816983       32.2304633557       31.9395528716  MEOH      1463            0.0000000000
     29861      2155  MEOH      H1C             1.7875597205       31.7114100891       30.2196807782  MEOH      1463            0.0000000000
     29862      2155  MEOH      LP1A            1.8536374681       29.9766329182       31.3556635300  MEOH      1463            0.0000000000
     29863      2155  MEOH      LP1B            1.8139889039       30.1590624705       31.9862953954  MEOH      1463            0.0000000000
     29864      2156  MEOH      C1              8.3053031687      -28.7664018108       26.9172963874  MEOH      1464            0.0000000000
     29865      2156  MEOH      DC1             8.3098259803      -28.7760218098       26.9182200345  MEOH      1464            0.0000000000
     29866      2156  MEOH      O1              6.9052975395      -28.7048199613       27.1306464163  MEOH      1464            0.0000000000
     29867      2156  MEOH      DO1             6.9129054350      -28.7158690243       27.1262385505  MEOH      1464            0.0000000000
     29868      2156  MEOH      HO1             6.7236583209      -28.1061564340       27.8719352780  MEOH      1464            0.0000000000
     29869      2156  MEOH      HO2             6.5007128478      -28.5314744468       26.2662607618  MEOH      1464            0.0000000000
     29870      2156  MEOH      H1A             8.5108882331      -29.5012361615       26.1097852369  MEOH      1464            0.0000000000
     29871      2156  MEOH      H1B             8.8303746663      -29.0612675104       27.8509318318  MEOH      1464            0.0000000000
     29872      2156  MEOH      H1C             8.6704164712      -27.7702898520       26.5874869842  MEOH      1464            0.0000000000
     29873      2156  MEOH      LP1A            6.7654762217      -28.4504667446       26.9350589928  MEOH      1464            0.0000000000
     29874      2156  MEOH      LP1B            6.8070149670      -28.9560964221       27.3535829010  MEOH      1464            0.0000000000
     29875      2157  MEOH      C1            -24.5483414546      -22.1918507168       31.6123490042  MEOH      1465            0.0000000000
     29876      2157  MEOH      DC1           -24.5480384852      -22.1861330433       31.6160877990  MEOH      1465            0.0000000000
     29877      2157  MEOH      O1            -25.0849474865      -21.0113587672       32.2157873400  MEOH      1465            0.0000000000
     29878      2157  MEOH      DO1           -25.0867001212      -21.0018614105       32.2157855648  MEOH      1465            0.0000000000
     29879      2157  MEOH      HO1           -25.4997627544      -20.4930807265       31.5085277219  MEOH      1465            0.0000000000
     29880      2157  MEOH      HO2           -25.5926814370      -21.3100384728       32.9864342559  MEOH      1465            0.0000000000
     29881      2157  MEOH      H1A           -23.9141227251      -22.7297000748       32.3491024718  MEOH      1465            0.0000000000
     29882      2157  MEOH      H1B           -23.9321651049      -21.9217724760       30.7282079239  MEOH      1465            0.0000000000
     29883      2157  MEOH      H1C           -25.3693376588      -22.8657413309       31.2865305350  MEOH      1465            0.0000000000
     29884      2157  MEOH      LP1A          -25.4125435750      -21.0704912281       32.3238806093  MEOH      1465            0.0000000000
     29885      2157  MEOH      LP1B          -24.8433628247      -20.7581259781       32.2189505189  MEOH      1465            0.0000000000
     29886      2158  MEOH      C1             32.7208276443       -9.1816346297       31.6121577251  MEOH      1466            0.0000000000
     29887      2158  MEOH      DC1            32.7181771346       -9.1893880817       31.6129553332  MEOH      1466            0.0000000000
     29888      2158  MEOH      O1             31.7147633810       -9.4415263833       32.5932397180  MEOH      1466            0.0000000000
     29889      2158  MEOH      DO1            31.7216227112       -9.4595413821       32.6002653984  MEOH      1466            0.0000000000
     29890      2158  MEOH      HO1            31.2973665249      -10.2958052822       32.4011787187  MEOH      1466            0.0000000000
     29891      2158  MEOH      HO2            32.0849238192       -9.2103632071       33.4595219108  MEOH      1466            0.0000000000
     29892      2158  MEOH      H1A            33.0780531945       -8.1337567370       31.7052320410  MEOH      1466            0.0000000000
     29893      2158  MEOH      H1B            32.3116267116       -9.3155459790       30.5879783711  MEOH      1466            0.0000000000
     29894      2158  MEOH      H1C            33.5787693859       -9.8694988522       31.7705868264  MEOH      1466            0.0000000000
     29895      2158  MEOH      LP1A           31.8546383038       -9.6096182674       32.8665163626  MEOH      1466            0.0000000000
     29896      2158  MEOH      LP1B           31.4087701227       -9.3069982725       32.4894595981  MEOH      1466            0.0000000000
     29897      2159  MEOH      C1            -31.7301965988      -34.8954612866        7.2595820266  MEOH      1467            0.0000000000
     29898      2159  MEOH      DC1           -31.7206638660      -34.8975312517        7.2581848376  MEOH      1467            0.0000000000
     29899      2159  MEOH      O1            -30.4194768979      -35.0298132516        6.7141612875  MEOH      1467            0.0000000000
     29900      2159  MEOH      DO1           -30.4111856933      -35.0317400526        6.7150385534  MEOH      1467            0.0000000000
     29901      2159  MEOH      HO1           -29.8030605791      -34.7263357487        7.3988746049  MEOH      1467            0.0000000000
     29902      2159  MEOH      HO2           -30.3704740595      -35.9361137827        6.3719361121  MEOH      1467            0.0000000000
     29903      2159  MEOH      H1A           -32.4936701378      -35.1133998165        6.4824514362  MEOH      1467            0.0000000000
     29904      2159  MEOH      H1B           -31.8857658485      -33.8593094170        7.6290526113  MEOH      1467            0.0000000000
     29905      2159  MEOH      H1C           -31.8642221934      -35.6108889512        8.0989397553  MEOH      1467            0.0000000000
     29906      2159  MEOH      LP1A          -30.2934519366      -35.3490668628        6.7826801962  MEOH      1467            0.0000000000
     29907      2159  MEOH      LP1B          -30.3299218564      -34.7371837929        6.5443146083  MEOH      1467            0.0000000000
     29908      2160  MEOH      C1            -10.7458900899       22.2421311161       12.7251301911  MEOH      1468            0.0000000000
     29909      2160  MEOH      DC1           -10.7490311119       22.2484081347       12.7204790419  MEOH      1468            0.0000000000
     29910      2160  MEOH      O1            -10.4883275211       22.7920230001       14.0168511664  MEOH      1468            0.0000000000
     29911      2160  MEOH      DO1           -10.4982405817       22.7921738712       14.0120683978  MEOH      1468            0.0000000000
     29912      2160  MEOH      HO1           -11.3235722616       23.1175916719       14.3873525341  MEOH      1468            0.0000000000
     29913      2160  MEOH      HO2            -9.9695296910       22.1273890707       14.4964453203  MEOH      1468            0.0000000000
     29914      2160  MEOH      H1A            -9.7919916912       21.8959899551       12.2728192998  MEOH      1468            0.0000000000
     29915      2160  MEOH      H1B           -11.1900745432       23.0235149439       12.0720907703  MEOH      1468            0.0000000000
     29916      2160  MEOH      H1C           -11.4416799675       21.3781612429       12.7863960561  MEOH      1468            0.0000000000
     29917      2160  MEOH      LP1A          -10.5155063894       22.5424938777       14.2607702640  MEOH      1468            0.0000000000
     29918      2160  MEOH      LP1B          -10.4068151984       23.1312141441       13.9884767226  MEOH      1468            0.0000000000
     29919      2161  MEOH      C1            -10.7652192067      -19.6825701592      -15.4979065983  MEOH      1469            0.0000000000
     29920      2161  MEOH      DC1           -10.7643876822      -19.6852204526      -15.4921701615  MEOH      1469            0.0000000000
     29921      2161  MEOH      O1             -9.3996115302      -19.8259310812      -15.1091916180  MEOH      1469            0.0000000000
     29922      2161  MEOH      DO1            -9.4079978330      -19.8213207848      -15.0951366099  MEOH      1469            0.0000000000
     29923      2161  MEOH      HO1            -8.8893772567      -19.0521281695      -15.3951811993  MEOH      1469            0.0000000000
     29924      2161  MEOH      HO2            -9.3967433434      -20.1593967827      -14.1983170935  MEOH      1469            0.0000000000
     29925      2161  MEOH      H1A           -11.2885897226      -20.6562111196      -15.3864275167  MEOH      1469            0.0000000000
     29926      2161  MEOH      H1B           -10.8336620529      -19.3473358573      -16.5549092191  MEOH      1469            0.0000000000
     29927      2161  MEOH      H1C           -11.2674217221      -18.9375909221      -14.8443627437  MEOH      1469            0.0000000000
     29928      2161  MEOH      LP1A           -9.3519678715      -19.6941175523      -14.7884810392  MEOH      1469            0.0000000000
     29929      2161  MEOH      LP1B           -9.2205709825      -19.9919657173      -15.3599444483  MEOH      1469            0.0000000000
     29930      2162  MEOH      C1             -4.8027388604        8.6950064005      -35.7311183730  MEOH      1470            0.0000000000
     29931      2162  MEOH      DC1            -4.8154103799        8.6968030392      -35.7309998658  MEOH      1470            0.0000000000
     29932      2162  MEOH      O1             -5.6781941287        7.6688526414      -35.2570388817  MEOH      1470            0.0000000000
     29933      2162  MEOH      DO1            -5.6866377883        7.6697678427      -35.2556595371  MEOH      1470            0.0000000000
     29934      2162  MEOH      HO1            -6.5502266594        7.8232581056      -35.6527890781  MEOH      1470            0.0000000000
     29935      2162  MEOH      HO2            -5.2154035947        6.8326419374      -35.4227994948  MEOH      1470            0.0000000000
     29936      2162  MEOH      H1A            -3.7912091886        8.5647556038      -35.2904785482  MEOH      1470            0.0000000000
     29937      2162  MEOH      H1B            -5.1848297180        9.6936479307      -35.4293855915  MEOH      1470            0.0000000000
     29938      2162  MEOH      H1C            -4.6946729913        8.6421085761      -36.8355841209  MEOH      1470            0.0000000000
     29939      2162  MEOH      LP1A           -5.6644181702        7.3917425133      -35.4703935157  MEOH      1470            0.0000000000
     29940      2162  MEOH      LP1B           -5.8299634002        7.7696143608      -34.9581858005  MEOH      1470            0.0000000000
     29941      2163  MEOH      C1            -20.5778157541       -5.6118229760       -4.4522781204  MEOH      1471            0.0000000000
     29942      2163  MEOH      DC1           -20.5798549381       -5.6202133528       -4.4410589549  MEOH      1471            0.0000000000
     29943      2163  MEOH      O1            -19.7714625058       -4.4431088292       -4.5907876461  MEOH      1471            0.0000000000
     29944      2163  MEOH      DO1           -19.7746935961       -4.4545303764       -4.5772830843  MEOH      1471            0.0000000000
     29945      2163  MEOH      HO1           -19.1609416676       -4.5793621944       -5.3321373116  MEOH      1471            0.0000000000
     29946      2163  MEOH      HO2           -20.3985535528       -3.7045863055       -4.6381300335  MEOH      1471            0.0000000000
     29947      2163  MEOH      H1A           -21.3222222700       -5.4378562318       -3.6461047451  MEOH      1471            0.0000000000
     29948      2163  MEOH      H1B           -19.9463096254       -6.4865013217       -4.1868373501  MEOH      1471            0.0000000000
     29949      2163  MEOH      H1C           -21.1175557600       -5.8158314295       -5.4016896631  MEOH      1471            0.0000000000
     29950      2163  MEOH      LP1A          -19.9281817707       -4.2141390501       -4.8041228571  MEOH      1471            0.0000000000
     29951      2163  MEOH      LP1B          -19.4848831637       -4.4711289542       -4.3918224399  MEOH      1471            0.0000000000
     29952      2164  MEOH      C1            -23.9552261121      -10.5997884065      -21.1532640743  MEOH      1472            0.0000000000
     29953      2164  MEOH      DC1           -23.9514303106      -10.6079014780      -21.1503997465  MEOH      1472            0.0000000000
     29954      2164  MEOH      O1            -23.4485117062      -11.8318107191      -20.6369524317  MEOH      1472            0.0000000000
     29955      2164  MEOH      DO1           -23.4377204837      -11.8405414491      -20.6402296524  MEOH      1472            0.0000000000
     29956      2164  MEOH      HO1           -23.2204208220      -11.6634176094      -19.7093111707  MEOH      1472            0.0000000000
     29957      2164  MEOH      HO2           -24.1145805180      -12.4996266739      -20.8633904805  MEOH      1472            0.0000000000
     29958      2164  MEOH      H1A           -24.2286963330      -10.7082680113      -22.2246030570  MEOH      1472            0.0000000000
     29959      2164  MEOH      H1B           -23.1812305302       -9.8084566876      -21.0581538721  MEOH      1472            0.0000000000
     29960      2164  MEOH      H1C           -24.8654830377      -10.3029485731      -20.5896689691  MEOH      1472            0.0000000000
     29961      2164  MEOH      LP1A          -23.7107817964      -12.0245715418      -20.5082758409  MEOH      1472            0.0000000000
     29962      2164  MEOH      LP1B          -23.1029567613      -11.8504591563      -20.6893357859  MEOH      1472            0.0000000000
     29963      2165  MEOH      C1              5.4014677615       19.2073437562       -5.3232841061  MEOH      1473            0.0000000000
     29964      2165  MEOH      DC1             5.4028975258       19.2077590268       -5.3162137450  MEOH      1473            0.0000000000
     29965      2165  MEOH      O1              5.6426045252       17.8912539121       -5.8317273145  MEOH      1473            0.0000000000
     29966      2165  MEOH      DO1             5.6491311921       17.8966734788       -5.8374013725  MEOH      1473            0.0000000000
     29967      2165  MEOH      HO1             4.9893004520       17.2916589480       -5.4385611067  MEOH      1473            0.0000000000
     29968      2165  MEOH      HO2             5.6946889695       17.9848501339       -6.7957952372  MEOH      1473            0.0000000000
     29969      2165  MEOH      H1A             6.1848870096       19.8994824876       -5.6994745620  MEOH      1473            0.0000000000
     29970      2165  MEOH      H1B             5.4453582255       19.2184639065       -4.2132070953  MEOH      1473            0.0000000000
     29971      2165  MEOH      H1C             4.4050274450       19.5703085266       -5.6544702641  MEOH      1473            0.0000000000
     29972      2165  MEOH      LP1A            5.4622375589       17.8423430969       -6.1276588769  MEOH      1473            0.0000000000
     29973      2165  MEOH      LP1B            5.8720729289       17.7240422692       -5.6270702399  MEOH      1473            0.0000000000
     29974      2166  MEOH      C1             25.7178545660        0.3261899168       -5.1386814421  MEOH      1474            0.0000000000
     29975      2166  MEOH      DC1            25.7159675876        0.3232898035       -5.1257989240  MEOH      1474            0.0000000000
     29976      2166  MEOH      O1             25.7174389938        1.7043163552       -4.7670612035  MEOH      1474            0.0000000000
     29977      2166  MEOH      DO1            25.6938217988        1.7048029446       -4.7559619478  MEOH      1474            0.0000000000
     29978      2166  MEOH      HO1            25.6244612039        1.7357672653       -3.8020399753  MEOH      1474            0.0000000000
     29979      2166  MEOH      HO2            26.5244188241        2.0648060922       -5.1667244427  MEOH      1474            0.0000000000
     29980      2166  MEOH      H1A            25.8813381630        0.2347028140       -6.2337724080  MEOH      1474            0.0000000000
     29981      2166  MEOH      H1B            24.7466265509       -0.1502228075       -4.8855647477  MEOH      1474            0.0000000000
     29982      2166  MEOH      H1C            26.5282158895       -0.2111398279       -4.6011758407  MEOH      1474            0.0000000000
     29983      2166  MEOH      LP1A           26.0451699102        1.8129055836       -4.7096083892  MEOH      1474            0.0000000000
     29984      2166  MEOH      LP1B           25.3907872876        1.8298586335       -4.7732093101  MEOH      1474            0.0000000000
     29985      2167  MEOH      C1             35.2637927186      -26.0652414850      -22.6817927711  MEOH      1475            0.0000000000
     29986      2167  MEOH      DC1            35.2558914821      -26.0717592994      -22.6809806223  MEOH      1475            0.0000000000
     29987      2167  MEOH      O1             36.5765549255      -25.5364128911      -22.8543543770  MEOH      1475            0.0000000000
     29988      2167  MEOH      DO1            36.5715527918      -25.5399926308      -22.8555590462  MEOH      1475            0.0000000000
     29989      2167  MEOH      HO1            36.7187744475      -24.8643775487      -22.1694878892  MEOH      1475            0.0000000000
     29990      2167  MEOH      HO2            37.1636025829      -26.3060539308      -22.9170258890  MEOH      1475            0.0000000000
     29991      2167  MEOH      H1A            35.0475379687      -26.7702057182      -23.5128043913  MEOH      1475            0.0000000000
     29992      2167  MEOH      H1B            34.5166169836      -25.2435049192      -22.7100494408  MEOH      1475            0.0000000000
     29993      2167  MEOH      H1C            35.1925442132      -26.6007059013      -21.7109567861  MEOH      1475            0.0000000000
     29994      2167  MEOH      LP1A           36.8070339785      -25.7262234910      -22.6717308784  MEOH      1475            0.0000000000
     29995      2167  MEOH      LP1B           36.5681513734      -25.2647855637      -23.0749172373  MEOH      1475            0.0000000000
     29996      2168  MEOH      C1             15.1258888422      -20.4936632699      -28.5183496056  MEOH      1476            0.0000000000
     29997      2168  MEOH      DC1            15.1308257095      -20.5054655222      -28.5373942542  MEOH      1476            0.0000000000
     29998      2168  MEOH      O1             15.5555081695      -20.7927319437      -29.8417732731  MEOH      1476            0.0000000000
     29999      2168  MEOH      DO1            15.5590839333      -20.7971818873      -29.8544040526  MEOH      1476            0.0000000000
     30000      2168  MEOH      HO1            16.1388164657      -21.5661925821      -29.7926807709  MEOH      1476            0.0000000000
     30001      2168  MEOH      HO2            14.7712886958      -20.7803634885      -30.4125156305  MEOH      1476            0.0000000000
     30002      2168  MEOH      H1A            14.6054214570      -19.5121532975      -28.5098128672  MEOH      1476            0.0000000000
     30003      2168  MEOH      H1B            16.0014886230      -20.4248586228      -27.8379732800  MEOH      1476            0.0000000000
     30004      2168  MEOH      H1C            14.4263910397      -21.2782743127      -28.1586145112  MEOH      1476            0.0000000000
     30005      2168  MEOH      LP1A           15.3291266453      -21.0116335815      -29.9945262714  MEOH      1476            0.0000000000
     30006      2168  MEOH      LP1B           15.8480181837      -20.6153027402      -29.9156432220  MEOH      1476            0.0000000000
     30007      2169  MEOH      C1             31.5074090652       -2.7176894754      -32.7392981106  MEOH      1477            0.0000000000
     30008      2169  MEOH      DC1            31.5179622163       -2.7317329754      -32.7370528247  MEOH      1477            0.0000000000
     30009      2169  MEOH      O1             30.4285881872       -1.8325355813      -33.0471085213  MEOH      1477            0.0000000000
     30010      2169  MEOH      DO1            30.4432165418       -1.8328005794      -33.0350697365  MEOH      1477            0.0000000000
     30011      2169  MEOH      HO1            29.6188209206       -2.3435911559      -33.2020251925  MEOH      1477            0.0000000000
     30012      2169  MEOH      HO2            30.4571580636       -1.1293825207      -32.3795311583  MEOH      1477            0.0000000000
     30013      2169  MEOH      H1A            32.4571207225       -2.1413208213      -32.7522574041  MEOH      1477            0.0000000000
     30014      2169  MEOH      H1B            31.5714169130       -3.5265250556      -33.4982506781  MEOH      1477            0.0000000000
     30015      2169  MEOH      H1C            31.3629983233       -3.1570345148      -31.7291285824  MEOH      1477            0.0000000000
     30016      2169  MEOH      LP1A           30.2675252959       -1.7331916345      -32.7526776715  MEOH      1477            0.0000000000
     30017      2169  MEOH      LP1B           30.4159769351       -1.7745998398      -33.3920496847  MEOH      1477            0.0000000000
     30018      2170  MEOH      C1             17.7419215158      -35.9029797970      -36.5940799689  MEOH      1478            0.0000000000
     30019      2170  MEOH      DC1            17.7351528910      -35.9052644569      -36.5861158882  MEOH      1478            0.0000000000
     30020      2170  MEOH      O1             16.4703437218      -35.3130820396      -36.3086431138  MEOH      1478            0.0000000000
     30021      2170  MEOH      DO1            16.4659275222      -35.3174414065      -36.2931619512  MEOH      1478            0.0000000000
     30022      2170  MEOH      HO1            15.7788333422      -35.9734298213      -36.4719042611  MEOH      1478            0.0000000000
     30023      2170  MEOH      HO2            16.5591374160      -34.8485535753      -35.4617493854  MEOH      1478            0.0000000000
     30024      2170  MEOH      H1A            18.5241577109      -35.1140741690      -36.6015261085  MEOH      1478            0.0000000000
     30025      2170  MEOH      H1B            17.7204387987      -36.3988675533      -37.5880391367  MEOH      1478            0.0000000000
     30026      2170  MEOH      H1C            18.0035664384      -36.6562338695      -35.8204707411  MEOH      1478            0.0000000000
     30027      2170  MEOH      LP1A           16.3895878775      -35.3600771198      -35.9713450912  MEOH      1478            0.0000000000
     30028      2170  MEOH      LP1B           16.3434821384      -35.1575175333      -36.5953586925  MEOH      1478            0.0000000000
     30029      2171  MEOH      C1            -10.6634491430       24.5407107514       19.7387240045  MEOH      1479            0.0000000000
     30030      2171  MEOH      DC1           -10.6777121043       24.5363117161       19.7444463509  MEOH      1479            0.0000000000
     30031      2171  MEOH      O1            -11.9218995570       24.2062568554       19.1491333881  MEOH      1479            0.0000000000
     30032      2171  MEOH      DO1           -11.9391965316       24.2133130069       19.1485011106  MEOH      1479            0.0000000000
     30033      2171  MEOH      HO1           -12.4296139645       23.7379221671       19.8301537257  MEOH      1479            0.0000000000
     30034      2171  MEOH      HO2           -12.2450043499       25.0172160332       18.7262285459  MEOH      1479            0.0000000000
     30035      2171  MEOH      H1A            -9.9527416715       24.8917721955       18.9602821294  MEOH      1479            0.0000000000
     30036      2171  MEOH      H1B           -10.2045992842       23.6460974490       20.2114235353  MEOH      1479            0.0000000000
     30037      2171  MEOH      H1C           -10.7788376001       25.3369126152       20.5049283489  MEOH      1479            0.0000000000
     30038      2171  MEOH      LP1A          -12.1503046504       24.4667948079       19.1986418585  MEOH      1479            0.0000000000
     30039      2171  MEOH      LP1B          -11.9010050157       23.8946850586       18.9910624118  MEOH      1479            0.0000000000
     30040      2172  MEOH      C1             25.7070767072       30.7972447552       28.0829465100  MEOH      1480            0.0000000000
     30041      2172  MEOH      DC1            25.7086699062       30.8006142990       28.0664849385  MEOH      1480            0.0000000000
     30042      2172  MEOH      O1             24.6435484399       30.8458967251       27.1272608862  MEOH      1480            0.0000000000
     30043      2172  MEOH      DO1            24.6444291568       30.8445915724       27.1126649870  MEOH      1480            0.0000000000
     30044      2172  MEOH      HO1            24.1033137746       31.6189070025       27.3542005644  MEOH      1480            0.0000000000
     30045      2172  MEOH      HO2            25.0541846119       30.7493418499       26.2537878809  MEOH      1480            0.0000000000
     30046      2172  MEOH      H1A            26.2467792514       29.8296472012       28.0005017441  MEOH      1480            0.0000000000
     30047      2172  MEOH      H1B            25.3000303920       30.8892395662       29.1125926888  MEOH      1480            0.0000000000
     30048      2172  MEOH      H1C            26.4221086300       31.6278164325       27.9007349893  MEOH      1480            0.0000000000
     30049      2172  MEOH      LP1A           24.7419786469       31.0325466618       26.8480238982  MEOH      1480            0.0000000000
     30050      2172  MEOH      LP1B           24.3712762740       30.6579605475       27.2414881197  MEOH      1480            0.0000000000
     30051      2173  MEOH      C1            -11.5049766753      -20.4745728281      -31.8683474190  MEOH      1481            0.0000000000
     30052      2173  MEOH      DC1           -11.5153919923      -20.4883833925      -31.8526028142  MEOH      1481            0.0000000000
     30053      2173  MEOH      O1            -11.2081968725      -21.6316313446      -31.0885619773  MEOH      1481            0.0000000000
     30054      2173  MEOH      DO1           -11.2049753572      -21.6441009133      -31.0750722896  MEOH      1481            0.0000000000
     30055      2173  MEOH      HO1           -11.5093485685      -22.3805867747      -31.6264034226  MEOH      1481            0.0000000000
     30056      2173  MEOH      HO2           -10.2715689593      -21.5423304949      -30.8526520146  MEOH      1481            0.0000000000
     30057      2173  MEOH      H1A           -11.2043519104      -19.5542666112      -31.3233866685  MEOH      1481            0.0000000000
     30058      2173  MEOH      H1B           -12.5959918932      -20.4247021947      -32.0721112890  MEOH      1481            0.0000000000
     30059      2173  MEOH      H1C           -10.9610424393      -20.5078756572      -32.8365144854  MEOH      1481            0.0000000000
     30060      2173  MEOH      LP1A          -10.8843449554      -21.7438894064      -31.1594002673  MEOH      1481            0.0000000000
     30061      2173  MEOH      LP1B          -11.4779106391      -21.7068815600      -30.8785812897  MEOH      1481            0.0000000000
     30062      2174  MEOH      C1             11.0406008187       32.2046142671      -15.1384068165  MEOH      1482            0.0000000000
     30063      2174  MEOH      DC1            11.0422162258       32.2152033260      -15.1441095516  MEOH      1482            0.0000000000
     30064      2174  MEOH      O1             10.0339639093       33.0459116695      -14.5795604509  MEOH      1482            0.0000000000
     30065      2174  MEOH      DO1            10.0380921096       33.0569620234      -14.5875700423  MEOH      1482            0.0000000000
     30066      2174  MEOH      HO1            10.1134447529       33.9287378954      -14.9735155892  MEOH      1482            0.0000000000
     30067      2174  MEOH      HO2             9.2042634347       32.5458177476      -14.6285828100  MEOH      1482            0.0000000000
     30068      2174  MEOH      H1A            11.0604792288       31.2453665380      -14.5782553695  MEOH      1482            0.0000000000
     30069      2174  MEOH      H1B            12.0364390611       32.6867878714      -15.0377300554  MEOH      1482            0.0000000000
     30070      2174  MEOH      H1C            10.8300601988       31.9899763006      -16.2079507343  MEOH      1482            0.0000000000
     30071      2174  MEOH      LP1A            9.7406273299       33.0238002083      -14.7692041548  MEOH      1482            0.0000000000
     30072      2174  MEOH      LP1B           10.1545617662       33.2005319450      -14.2896488655  MEOH      1482            0.0000000000
     30073      2175  MEOH      C1            -19.4657404372       36.2491551763      -15.7406518434  MEOH      1483            0.0000000000
     30074      2175  MEOH      DC1           -19.4643378695       36.2564292915      -15.7499226518  MEOH      1483            0.0000000000
     30075      2175  MEOH      O1            -18.8087119464       35.6166021372      -16.8246542915  MEOH      1483            0.0000000000
     30076      2175  MEOH      DO1           -18.8072424413       35.6302433786      -16.8352310978  MEOH      1483            0.0000000000
     30077      2175  MEOH      HO1           -17.8611669161       35.6015025481      -16.6176991804  MEOH      1483            0.0000000000
     30078      2175  MEOH      HO2           -19.2706538079       34.7726944095      -16.9484665084  MEOH      1483            0.0000000000
     30079      2175  MEOH      H1A           -20.5679206679       36.1401298157      -15.8280200899  MEOH      1483            0.0000000000
     30080      2175  MEOH      H1B           -19.2160511837       37.3303312888      -15.7957380510  MEOH      1483            0.0000000000
     30081      2175  MEOH      H1C           -19.1281881499       35.8067970004      -14.7790392916  MEOH      1483            0.0000000000
     30082      2175  MEOH      LP1A          -18.7951441444       35.2709764451      -16.7711865841  MEOH      1483            0.0000000000
     30083      2175  MEOH      LP1B          -18.7213297203       35.8539198109      -17.0666143467  MEOH      1483            0.0000000000
     30084      2176  MEOH      C1              9.1552938553       15.3240661138      -31.1526660093  MEOH      1484            0.0000000000
     30085      2176  MEOH      DC1             9.1519909320       15.3372142537      -31.1555497311  MEOH      1484            0.0000000000
     30086      2176  MEOH      O1              8.6611985197       16.2877252797      -32.0837348934  MEOH      1484            0.0000000000
     30087      2176  MEOH      DO1             8.6635360821       16.2937049738      -32.0979777730  MEOH      1484            0.0000000000
     30088      2176  MEOH      HO1             9.4429458047       16.6942466589      -32.4893351291  MEOH      1484            0.0000000000
     30089      2176  MEOH      HO2             8.0181644366       15.8112149662      -32.6317723821  MEOH      1484            0.0000000000
     30090      2176  MEOH      H1A             8.3156547408       14.8502626080      -30.6005451936  MEOH      1484            0.0000000000
     30091      2176  MEOH      H1B             9.8416642460       15.7987789840      -30.4192736321  MEOH      1484            0.0000000000
     30092      2176  MEOH      H1C             9.7108053702       14.5407005361      -31.7112949820  MEOH      1484            0.0000000000
     30093      2176  MEOH      LP1A            8.6113455438       16.1378176096      -32.3960526342  MEOH      1484            0.0000000000
     30094      2176  MEOH      LP1B            8.6174521362       16.5964011109      -31.9246579146  MEOH      1484            0.0000000000
     30095      2177  MEOH      C1            -30.5173505963        1.0847975747       32.5868080851  MEOH      1485            0.0000000000
     30096      2177  MEOH      DC1           -30.5355966701        1.0762453328       32.5876232995  MEOH      1485            0.0000000000
     30097      2177  MEOH      O1            -31.6279594251        0.5468195206       31.8648658402  MEOH      1485            0.0000000000
     30098      2177  MEOH      DO1           -31.6408717178        0.5329165662       31.8682751727  MEOH      1485            0.0000000000
     30099      2177  MEOH      HO1           -32.4146907146        1.0251893849       32.1700152316  MEOH      1485            0.0000000000
     30100      2177  MEOH      HO2           -31.3781529522        0.6191763366       30.9303813737  MEOH      1485            0.0000000000
     30101      2177  MEOH      H1A           -29.5680889658        0.6379159888       32.2214039178  MEOH      1485            0.0000000000
     30102      2177  MEOH      H1B           -30.6015218850        0.8621502549       33.6720105386  MEOH      1485            0.0000000000
     30103      2177  MEOH      H1C           -30.4672893505        2.1848154364       32.4392425854  MEOH      1485            0.0000000000
     30104      2177  MEOH      LP1A          -31.6725880505        0.7225633544       31.5654958506  MEOH      1485            0.0000000000
     30105      2177  MEOH      LP1B          -31.7622513441        0.2737928730       32.0378459841  MEOH      1485            0.0000000000
     30106      2178  MEOH      C1              8.2824460824       -9.1578614591       14.6918527159  MEOH      1486            0.0000000000
     30107      2178  MEOH      DC1             8.2885283376       -9.1628574984       14.6713618098  MEOH      1486            0.0000000000
     30108      2178  MEOH      O1              8.7969229735       -9.2497153749       13.3692214024  MEOH      1486            0.0000000000
     30109      2178  MEOH      DO1             8.8169895179       -9.2582142161       13.3523059160  MEOH      1486            0.0000000000
     30110      2178  MEOH      HO1             9.4177072501       -9.9948546233       13.3863789794  MEOH      1486            0.0000000000
     30111      2178  MEOH      HO2             8.0194192715       -9.2725303697       12.7896806618  MEOH      1486            0.0000000000
     30112      2178  MEOH      H1A             7.5337338237       -8.3393656902       14.7536235174  MEOH      1486            0.0000000000
     30113      2178  MEOH      H1B             9.1021066236       -8.9568840744       15.4144076887  MEOH      1486            0.0000000000
     30114      2178  MEOH      H1C             7.7888225829      -10.1163022547       14.9602704540  MEOH      1486            0.0000000000
     30115      2178  MEOH      LP1A            8.5929740097       -9.4581258004       13.1756499305  MEOH      1486            0.0000000000
     30116      2178  MEOH      LP1B            9.0810042944       -9.0478270222       13.3369894905  MEOH      1486            0.0000000000
     30117      2179  MEOH      C1             -0.3149134133      -35.7521208358       21.0305159851  MEOH      1487            0.0000000000
     30118      2179  MEOH      DC1            -0.3190243580      -35.7369774294       21.0297280021  MEOH      1487            0.0000000000
     30119      2179  MEOH      O1             -0.2495336222      -37.1797044114       21.0142140741  MEOH      1487            0.0000000000
     30120      2179  MEOH      DO1            -0.2501847269      -37.1653831896       21.0174064643  MEOH      1487            0.0000000000
     30121      2179  MEOH      HO1            -0.8534973625      -37.5086735189       20.3301767008  MEOH      1487            0.0000000000
     30122      2179  MEOH      HO2             0.6937833467      -37.4028498490       20.9787287267  MEOH      1487            0.0000000000
     30123      2179  MEOH      H1A             0.3047390375      -35.3572859685       21.8638570128  MEOH      1487            0.0000000000
     30124      2179  MEOH      H1B            -1.3656972977      -35.4208900627       21.1735558512  MEOH      1487            0.0000000000
     30125      2179  MEOH      H1C             0.0687370096      -35.3404595337       20.0725659202  MEOH      1487            0.0000000000
     30126      2179  MEOH      LP1A            0.0028091746      -37.2854958535       20.7959681493  MEOH      1487            0.0000000000
     30127      2179  MEOH      LP1B           -0.4832075658      -37.3128044500       21.2382249394  MEOH      1487            0.0000000000
     30128      2180  MEOH      C1             10.3981361881      -36.6646334496       24.9227535445  MEOH      1488            0.0000000000
     30129      2180  MEOH      DC1            10.3944857873      -36.6598152093       24.9294649726  MEOH      1488            0.0000000000
     30130      2180  MEOH      O1             10.6583568889      -37.0779583062       26.2538457629  MEOH      1488            0.0000000000
     30131      2180  MEOH      DO1            10.6255033269      -37.1006196668       26.2682036608  MEOH      1488            0.0000000000
     30132      2180  MEOH      HO1            11.2211448714      -36.4048874678       26.6675429162  MEOH      1488            0.0000000000
     30133      2180  MEOH      HO2             9.8047675227      -37.3453358038       26.6290716517  MEOH      1488            0.0000000000
     30134      2180  MEOH      H1A             9.8623952878      -37.4599898657       24.3617625830  MEOH      1488            0.0000000000
     30135      2180  MEOH      H1B            11.3639258499      -36.4635958908       24.4117200512  MEOH      1488            0.0000000000
     30136      2180  MEOH      H1C             9.7928925993      -35.7330221142       24.9328292073  MEOH      1488            0.0000000000
     30137      2180  MEOH      LP1A           10.4093423841      -36.9565437904       26.4677389413  MEOH      1488            0.0000000000
     30138      2180  MEOH      LP1B           10.9449917580      -37.2785980058       26.2630197911  MEOH      1488            0.0000000000
     30139      2181  MEOH      C1             22.3242669932       21.6579681593       31.9369276842  MEOH      1489            0.0000000000
     30140      2181  MEOH      DC1            22.3061848441       21.6537254734       31.9335458481  MEOH      1489            0.0000000000
     30141      2181  MEOH      O1             20.9754479622       21.5213516192       31.4816229292  MEOH      1489            0.0000000000
     30142      2181  MEOH      DO1            20.9645634070       21.5232768504       31.4739667750  MEOH      1489            0.0000000000
     30143      2181  MEOH      HO1            20.9925565009       21.6724072683       30.5236096262  MEOH      1489            0.0000000000
     30144      2181  MEOH      HO2            20.6559901890       20.6794804642       31.8423162762  MEOH      1489            0.0000000000
     30145      2181  MEOH      H1A            22.3570122805       21.6229425809       33.0468925284  MEOH      1489            0.0000000000
     30146      2181  MEOH      H1B            22.7428883413       22.6330198792       31.6077600804  MEOH      1489            0.0000000000
     30147      2181  MEOH      H1C            22.9558144787       20.8370936140       31.5348906779  MEOH      1489            0.0000000000
     30148      2181  MEOH      LP1A           20.9101893972       21.1875368845       31.3991060063  MEOH      1489            0.0000000000
     30149      2181  MEOH      LP1B           20.8115000579       21.8301084275       31.4986616501  MEOH      1489            0.0000000000
     30150      2182  MEOH      C1            -36.6057405745       20.6848908703      -20.9323338345  MEOH      1490            0.0000000000
     30151      2182  MEOH      DC1           -36.6054554489       20.6866601442      -20.9295399339  MEOH      1490            0.0000000000
     30152      2182  MEOH      O1            -36.7052652935       22.0518452014      -20.5366858371  MEOH      1490            0.0000000000
     30153      2182  MEOH      DO1           -36.7110672544       22.0516829939      -20.5432862857  MEOH      1490            0.0000000000
     30154      2182  MEOH      HO1           -35.8379100522       22.4646339071      -20.6715945870  MEOH      1490            0.0000000000
     30155      2182  MEOH      HO2           -37.4984840578       22.3988062871      -20.9740895374  MEOH      1490            0.0000000000
     30156      2182  MEOH      H1A           -37.5093153791       20.1382807809      -20.5872382208  MEOH      1490            0.0000000000
     30157      2182  MEOH      H1B           -35.7110374449       20.2041183511      -20.4821282193  MEOH      1490            0.0000000000
     30158      2182  MEOH      H1C           -36.5440197447       20.6077197878      -22.0389304926  MEOH      1490            0.0000000000
     30159      2182  MEOH      LP1A          -36.8059644051       22.2480923086      -20.8084334439  MEOH      1490            0.0000000000
     30160      2182  MEOH      LP1B          -36.6323128460       22.0834258828      -20.1958330815  MEOH      1490            0.0000000000
     30161      2183  MEOH      C1              1.2326953846      -28.2828419954      -11.6616321761  MEOH      1491            0.0000000000
     30162      2183  MEOH      DC1             1.2452489202      -28.2840286571      -11.6597133327  MEOH      1491            0.0000000000
     30163      2183  MEOH      O1              2.3807006289      -27.9516606271      -10.8843773265  MEOH      1491            0.0000000000
     30164      2183  MEOH      DO1             2.3922746398      -27.9545944489      -10.8858666731  MEOH      1491            0.0000000000
     30165      2183  MEOH      HO1             2.0556949121      -27.7870719409       -9.9853879778  MEOH      1491            0.0000000000
     30166      2183  MEOH      HO2             3.0194210049      -28.6649616717      -11.0397410970  MEOH      1491            0.0000000000
     30167      2183  MEOH      H1A             1.5259950503      -28.4727227924      -12.7162608264  MEOH      1491            0.0000000000
     30168      2183  MEOH      H1B             0.4994754541      -27.4486959039      -11.6314687603  MEOH      1491            0.0000000000
     30169      2183  MEOH      H1C             0.7591723180      -29.2002244135      -11.2511368576  MEOH      1491            0.0000000000
     30170      2183  MEOH      LP1A            2.5224392665      -28.2422684283      -10.7503726083  MEOH      1491            0.0000000000
     30171      2183  MEOH      LP1B            2.4384307777      -27.6066893334      -10.8971066798  MEOH      1491            0.0000000000
     30172      2184  MEOH      C1             24.5385941597       14.5137884835       13.2673864155  MEOH      1492            0.0000000000
     30173      2184  MEOH      DC1            24.5407861824       14.5144569412       13.2660526336  MEOH      1492            0.0000000000
     30174      2184  MEOH      O1             23.8352452347       13.3825199223       13.7751127681  MEOH      1492            0.0000000000
     30175      2184  MEOH      DO1            23.8436650260       13.3801434851       13.7658101920  MEOH      1492            0.0000000000
     30176      2184  MEOH      HO1            24.3894342547       12.9762247951       14.4597285731  MEOH      1492            0.0000000000
     30177      2184  MEOH      HO2            22.9530209869       13.7102154105       14.0100511505  MEOH      1492            0.0000000000
     30178      2184  MEOH      H1A            23.9930218721       14.9318425825       12.3945160644  MEOH      1492            0.0000000000
     30179      2184  MEOH      H1B            25.5628520938       14.2110607211       12.9614900500  MEOH      1492            0.0000000000
     30180      2184  MEOH      H1C            24.6337507943       15.2916108278       14.0549514078  MEOH      1492            0.0000000000
     30181      2184  MEOH      LP1A           23.6301130122       13.4789076481       14.0418151819  MEOH      1492            0.0000000000
     30182      2184  MEOH      LP1B           23.9135819774       13.0983032222       13.5864749613  MEOH      1492            0.0000000000
     30183      2185  MEOH      C1            -23.4609961839        4.1605780219       33.4715382488  MEOH      1493            0.0000000000
     30184      2185  MEOH      DC1           -23.4768590227        4.1685891027       33.4547043597  MEOH      1493            0.0000000000
     30185      2185  MEOH      O1            -23.5351808687        5.5876957344       33.4606532567  MEOH      1493            0.0000000000
     30186      2185  MEOH      DO1           -23.5486239344        5.5976998974       33.4570991016  MEOH      1493            0.0000000000
     30187      2185  MEOH      HO1           -24.0347917784        5.8666461337       32.6774064158  MEOH      1493            0.0000000000
     30188      2185  MEOH      HO2           -23.7678414135        5.8645323895       34.3607257752  MEOH      1493            0.0000000000
     30189      2185  MEOH      H1A           -22.6847410618        3.8197770991       34.1895937602  MEOH      1493            0.0000000000
     30190      2185  MEOH      H1B           -23.2115167127        3.7830386342       32.4568732774  MEOH      1493            0.0000000000
     30191      2185  MEOH      H1C           -24.4420682487        3.7291675943       33.7642901035  MEOH      1493            0.0000000000
     30192      2185  MEOH      LP1A          -23.8175033849        5.6942445894       33.6379703127  MEOH      1493            0.0000000000
     30193      2185  MEOH      LP1B          -23.2592465997        5.7206196013       33.2912675289  MEOH      1493            0.0000000000
     30194      2186  MEOH      C1             29.3056764933       23.8565279651       28.4268287854  MEOH      1494            0.0000000000
     30195      2186  MEOH      DC1            29.2932884212       23.8434596046       28.4000821301  MEOH      1494            0.0000000000
     30196      2186  MEOH      O1             29.8989280086       22.5614996331       28.5532410181  MEOH      1494            0.0000000000
     30197      2186  MEOH      DO1            29.8915532832       22.5429769531       28.5271219934  MEOH      1494            0.0000000000
     30198      2186  MEOH      HO1            30.7372238336       22.7405328826       29.0072313323  MEOH      1494            0.0000000000
     30199      2186  MEOH      HO2            29.2294214995       22.0221715438       29.0024472592  MEOH      1494            0.0000000000
     30200      2186  MEOH      H1A            28.3045869997       23.7848966595       27.9503733500  MEOH      1494            0.0000000000
     30201      2186  MEOH      H1B            29.9738173003       24.5213754580       27.8387074754  MEOH      1494            0.0000000000
     30202      2186  MEOH      H1C            29.1795321114       24.3014183755       29.4370174402  MEOH      1494            0.0000000000
     30203      2186  MEOH      LP1A           29.7952274441       22.4109408454       28.8517008050  MEOH      1494            0.0000000000
     30204      2186  MEOH      LP1B           30.0928875187       22.4905815769       28.2706629975  MEOH      1494            0.0000000000
     30205      2187  MEOH      C1             36.2128290951      -18.4509239677        0.8995341171  MEOH      1495            0.0000000000
     30206      2187  MEOH      DC1            36.2475935530      -18.4543650610        0.8771656293  MEOH      1495            0.0000000000
     30207      2187  MEOH      O1             37.1474325619      -19.5328935629        0.8452407159  MEOH      1495            0.0000000000
     30208      2187  MEOH      DO1            37.1888423961      -19.5377341914        0.7940114810  MEOH      1495            0.0000000000
     30209      2187  MEOH      HO1            36.6695607991      -20.2635363241        1.2679696294  MEOH      1495            0.0000000000
     30210      2187  MEOH      HO2            37.4440867484      -19.5871231871       -0.0766895643  MEOH      1495            0.0000000000
     30211      2187  MEOH      H1A            36.6742344491      -17.5014055339        0.5533537549  MEOH      1495            0.0000000000
     30212      2187  MEOH      H1B            35.8599368568      -18.3215290383        1.9450220519  MEOH      1495            0.0000000000
     30213      2187  MEOH      H1C            35.3288624351      -18.6826431685        0.2676874930  MEOH      1495            0.0000000000
     30214      2187  MEOH      LP1A           37.1083703932      -19.7099086568        0.5458416452  MEOH      1495            0.0000000000
     30215      2187  MEOH      LP1B           37.3504803891      -19.5301031110        1.1303087661  MEOH      1495            0.0000000000
     30216      2188  MEOH      C1            -25.1878302197      -14.2429388685       35.0832059487  MEOH      1496            0.0000000000
     30217      2188  MEOH      DC1           -25.1921587650      -14.2490385601       35.0837255696  MEOH      1496            0.0000000000
     30218      2188  MEOH      O1            -25.3155883299      -13.6816200442       33.7815313315  MEOH      1496            0.0000000000
     30219      2188  MEOH      DO1           -25.3143478880      -13.6850583863       33.7813491491  MEOH      1496            0.0000000000
     30220      2188  MEOH      HO1           -24.8321267394      -12.8407903578       33.7945824076  MEOH      1496            0.0000000000
     30221      2188  MEOH      HO2           -25.0724305893      -14.3874059893       33.1621441240  MEOH      1496            0.0000000000
     30222      2188  MEOH      H1A           -25.7707817610      -15.1848125269       35.1690110326  MEOH      1496            0.0000000000
     30223      2188  MEOH      H1B           -25.6038987028      -13.5067410480       35.8037757138  MEOH      1496            0.0000000000
     30224      2188  MEOH      H1C           -24.1202402190      -14.4439884114       35.3159110694  MEOH      1496            0.0000000000
     30225      2188  MEOH      LP1A          -25.0556915867      -13.7948850666       33.5762882620  MEOH      1496            0.0000000000
     30226      2188  MEOH      LP1B          -25.6032506335      -13.4829706281       33.7645369623  MEOH      1496            0.0000000000
     30227      2189  MEOH      C1             -4.6925845888      -29.5377200438        9.6706318245  MEOH      1497            0.0000000000
     30228      2189  MEOH      DC1            -4.7148947581      -29.5258209791        9.6733204278  MEOH      1497            0.0000000000
     30229      2189  MEOH      O1             -3.9295994148      -29.7992101100        8.4936525027  MEOH      1497            0.0000000000
     30230      2189  MEOH      DO1            -3.9513228760      -29.7778408652        8.4909265600  MEOH      1497            0.0000000000
     30231      2189  MEOH      HO1            -3.1263027485      -30.2595651033        8.7829408469  MEOH      1497            0.0000000000
     30232      2189  MEOH      HO2            -4.5311160537      -30.2676188847        7.8939267706  MEOH      1497            0.0000000000
     30233      2189  MEOH      H1A            -5.6520308578      -29.0510897766        9.3931884220  MEOH      1497            0.0000000000
     30234      2189  MEOH      H1B            -4.1163353291      -28.8678275249       10.3440572506  MEOH      1497            0.0000000000
     30235      2189  MEOH      H1C            -4.8977825828      -30.4938413423       10.1979332998  MEOH      1497            0.0000000000
     30236      2189  MEOH      LP1A           -4.0226391541      -30.1075880683        8.3567341266  MEOH      1497            0.0000000000
     30237      2189  MEOH      LP1B           -3.7166314723      -29.5296499416        8.4267049781  MEOH      1497            0.0000000000
     30238      2190  MEOH      C1             20.8589216091      -21.5260468335       28.9180429110  MEOH      1498            0.0000000000
     30239      2190  MEOH      DC1            20.8719350577      -21.5229517011       28.9141115419  MEOH      1498            0.0000000000
     30240      2190  MEOH      O1             21.1433990758      -20.2056894039       29.3707529683  MEOH      1498            0.0000000000
     30241      2190  MEOH      DO1            21.1617213211      -20.2049216452       29.3630130162  MEOH      1498            0.0000000000
     30242      2190  MEOH      HO1            21.4193829863      -20.2528302433       30.2994674682  MEOH      1498            0.0000000000
     30243      2190  MEOH      HO2            21.6356130125      -19.7459132509       28.6727333908  MEOH      1498            0.0000000000
     30244      2190  MEOH      H1A            20.1413614117      -21.4779990590       28.0712136635  MEOH      1498            0.0000000000
     30245      2190  MEOH      H1B            20.4084460200      -22.1234089745       29.7393535815  MEOH      1498            0.0000000000
     30246      2190  MEOH      H1C            21.7914051241      -22.0277864106       28.5818095224  MEOH      1498            0.0000000000
     30247      2190  MEOH      LP1A           21.4789119279      -20.1275999416       29.3088404332  MEOH      1498            0.0000000000
     30248      2190  MEOH      LP1B           20.8530188072      -20.0577361469       29.4983818573  MEOH      1498            0.0000000000
     30249      2191  MEOH      C1            -19.2561428762       24.3779881563      -30.8872539126  MEOH      1499            0.0000000000
     30250      2191  MEOH      DC1           -19.2502567175       24.3804723169      -30.9005673626  MEOH      1499            0.0000000000
     30251      2191  MEOH      O1            -20.5171531731       24.7750645985      -30.3769587295  MEOH      1499            0.0000000000
     30252      2191  MEOH      DO1           -20.5143474091       24.7850102845      -30.3935024892  MEOH      1499            0.0000000000
     30253      2191  MEOH      HO1           -20.4446806189       24.8497182101      -29.4125549925  MEOH      1499            0.0000000000
     30254      2191  MEOH      HO2           -20.7889753190       25.5330290333      -30.9177938583  MEOH      1499            0.0000000000
     30255      2191  MEOH      H1A           -19.3367771827       24.1469819463      -31.9709767745  MEOH      1499            0.0000000000
     30256      2191  MEOH      H1B           -18.8964405980       23.4782641338      -30.3437173867  MEOH      1499            0.0000000000
     30257      2191  MEOH      H1C           -18.5362592459       25.2127827048      -30.7486659602  MEOH      1499            0.0000000000
     30258      2191  MEOH      LP1A          -20.5389448860       25.1243190253      -30.3701420863  MEOH      1499            0.0000000000
     30259      2191  MEOH      LP1B          -20.7126731833       24.4930242483      -30.3082188832  MEOH      1499            0.0000000000
     30260      2192  MEOH      C1             20.9027441184      -34.2479000566       -7.7975788129  MEOH      1500            0.0000000000
     30261      2192  MEOH      DC1            20.9031567186      -34.2516913038       -7.8109428694  MEOH      1500            0.0000000000
     30262      2192  MEOH      O1             20.2844960938      -35.3074356224       -8.5280932202  MEOH      1500            0.0000000000
     30263      2192  MEOH      DO1            20.2880401284      -35.3061248916       -8.5395902334  MEOH      1500            0.0000000000
     30264      2192  MEOH      HO1            20.4939675100      -36.1267048435       -8.0528883483  MEOH      1500            0.0000000000
     30265      2192  MEOH      HO2            19.3591204119      -35.0398436978       -8.6419984845  MEOH      1500            0.0000000000
     30266      2192  MEOH      H1A            20.7067933136      -33.2755252399       -8.2979901437  MEOH      1500            0.0000000000
     30267      2192  MEOH      H1B            21.9996783473      -34.4117712170       -7.7327518050  MEOH      1500            0.0000000000
     30268      2192  MEOH      H1C            20.4798672706      -34.2034586146       -6.7711670388  MEOH      1500            0.0000000000
     30269      2192  MEOH      LP1A           19.9578567151      -35.3576246462       -8.4128205947  MEOH      1500            0.0000000000
     30270      2192  MEOH      LP1B           20.5034154349      -35.4273168392       -8.7734558416  MEOH      1500            0.0000000000
     30271      2193  MEOH      C1             13.1476718281      -24.4822431851      -33.4503443651  MEOH      1501            0.0000000000
     30272      2193  MEOH      DC1            13.1541706967      -24.4865477742      -33.4300624100  MEOH      1501            0.0000000000
     30273      2193  MEOH      O1             13.4688105615      -23.9328731839      -32.1710270989  MEOH      1501            0.0000000000
     30274      2193  MEOH      DO1            13.4718555892      -23.9295223065      -32.1631061477  MEOH      1501            0.0000000000
     30275      2193  MEOH      HO1            13.7475595437      -24.6660808113      -31.6004085047  MEOH      1501            0.0000000000
     30276      2193  MEOH      HO2            14.0668815984      -23.1899787697      -32.3479986374  MEOH      1501            0.0000000000
     30277      2193  MEOH      H1A            12.7719483760      -23.6666288539      -34.1045050119  MEOH      1501            0.0000000000
     30278      2193  MEOH      H1B            12.3462437691      -25.2461696265      -33.3584179875  MEOH      1501            0.0000000000
     30279      2193  MEOH      H1C            14.0429460526      -24.9343786138      -33.9282341192  MEOH      1501            0.0000000000
     30280      2193  MEOH      LP1A           13.8057307353      -23.8384747156      -32.1624407336  MEOH      1501            0.0000000000
     30281      2193  MEOH      LP1B           13.1830541522      -23.9247302761      -31.9690940219  MEOH      1501            0.0000000000
     30282      2194  MEOH      C1             -3.7977019939      -17.5569294059       13.1937793405  MEOH      1502            0.0000000000
     30283      2194  MEOH      DC1            -3.7901114067      -17.5725256696       13.1933971700  MEOH      1502            0.0000000000
     30284      2194  MEOH      O1             -2.5592969031      -17.0846356631       13.7331675921  MEOH      1502            0.0000000000
     30285      2194  MEOH      DO1            -2.5566708151      -17.0968896559       13.7390487029  MEOH      1502            0.0000000000
     30286      2194  MEOH      HO1            -1.8374463925      -17.5046151938       13.2397620447  MEOH      1502            0.0000000000
     30287      2194  MEOH      HO2            -2.6314354522      -16.1173290911       13.7294224507  MEOH      1502            0.0000000000
     30288      2194  MEOH      H1A            -4.6396119366      -17.0766310911       13.7367546413  MEOH      1502            0.0000000000
     30289      2194  MEOH      H1B            -3.8964506521      -18.6582713760       13.3015548902  MEOH      1502            0.0000000000
     30290      2194  MEOH      H1C            -3.8647688597      -17.2963260489       12.1158605466  MEOH      1502            0.0000000000
     30291      2194  MEOH      LP1A           -2.4601932552      -16.7926609218       13.5675499076  MEOH      1502            0.0000000000
     30292      2194  MEOH      LP1B           -2.4569543099      -17.2911312028       13.9965790301  MEOH      1502            0.0000000000
     30293      2195  MEOH      C1            -29.2435204504       17.7615656099       35.7842867623  MEOH      1503            0.0000000000
     30294      2195  MEOH      DC1           -29.2424318316       17.7628206992       35.7785780577  MEOH      1503            0.0000000000
     30295      2195  MEOH      O1            -29.8957707020       16.4973241441       35.9141422556  MEOH      1503            0.0000000000
     30296      2195  MEOH      DO1           -29.8982179331       16.5042213113       35.9035328821  MEOH      1503            0.0000000000
     30297      2195  MEOH      HO1           -30.1964455791       16.1920169513       35.0439226647  MEOH      1503            0.0000000000
     30298      2195  MEOH      HO2           -29.3034736798       15.9466987897       36.4497689521  MEOH      1503            0.0000000000
     30299      2195  MEOH      H1A           -28.9587593440       18.1383369325       36.7899087010  MEOH      1503            0.0000000000
     30300      2195  MEOH      H1B           -29.9294814325       18.4950768434       35.3091659341  MEOH      1503            0.0000000000
     30301      2195  MEOH      H1C           -28.3243568094       17.6501466315       35.1702468496  MEOH      1503            0.0000000000
     30302      2195  MEOH      LP1A          -29.6620037311       16.2384692494       35.8850364692  MEOH      1503            0.0000000000
     30303      2195  MEOH      LP1B          -30.2369581248       16.5444783809       35.9763324519  MEOH      1503            0.0000000000
     30304      2196  MEOH      C1             14.8725535098      -35.7016684188      -33.2428501335  MEOH      1504            0.0000000000
     30305      2196  MEOH      DC1            14.8729867183      -35.7035245832      -33.2427798115  MEOH      1504            0.0000000000
     30306      2196  MEOH      O1             14.4641308190      -36.8570884741      -33.9724173960  MEOH      1504            0.0000000000
     30307      2196  MEOH      DO1            14.4671184128      -36.8595730494      -33.9772679129  MEOH      1504            0.0000000000
     30308      2196  MEOH      HO1            15.1997368012      -37.0947950943      -34.5583179014  MEOH      1504            0.0000000000
     30309      2196  MEOH      HO2            14.1402021690      -37.4847613912      -33.3075888927  MEOH      1504            0.0000000000
     30310      2196  MEOH      H1A            13.9897629518      -35.2693782364      -32.7250402933  MEOH      1504            0.0000000000
     30311      2196  MEOH      H1B            15.2817789444      -34.9280154530      -33.9271867706  MEOH      1504            0.0000000000
     30312      2196  MEOH      H1C            15.6345033921      -35.9833505985      -32.4849526956  MEOH      1504            0.0000000000
     30313      2196  MEOH      LP1A           14.5498828700      -37.1467607435      -33.7956787130  MEOH      1504            0.0000000000
     30314      2196  MEOH      LP1B           14.2997226405      -36.7612555348      -34.2661621807  MEOH      1504            0.0000000000
     30315      2197  MEOH      C1             -3.2340013877      -20.0771365234      -23.8122280620  MEOH      1505            0.0000000000
     30316      2197  MEOH      DC1            -3.2399656952      -20.0739538105      -23.8196862139  MEOH      1505            0.0000000000
     30317      2197  MEOH      O1             -2.2956692427      -20.7015265032      -24.6927199851  MEOH      1505            0.0000000000
     30318      2197  MEOH      DO1            -2.3060965551      -20.6937512374      -24.7022971384  MEOH      1505            0.0000000000
     30319      2197  MEOH      HO1            -1.9147197798      -21.4600988053      -24.2233101758  MEOH      1505            0.0000000000
     30320      2197  MEOH      HO2            -2.7417318686      -20.8033174482      -25.5480367322  MEOH      1505            0.0000000000
     30321      2197  MEOH      H1A            -3.5572110506      -19.1024125330      -24.2362205837  MEOH      1505            0.0000000000
     30322      2197  MEOH      H1B            -2.7690834371      -19.9065914872      -22.8176996861  MEOH      1505            0.0000000000
     30323      2197  MEOH      H1C            -4.1227276798      -20.7299152791      -23.6767050977  MEOH      1505            0.0000000000
     30324      2197  MEOH      LP1A           -2.4571876509      -20.9427323181      -24.8882489053  MEOH      1505            0.0000000000
     30325      2197  MEOH      LP1B           -1.9794291948      -20.5570077893      -24.6526379011  MEOH      1505            0.0000000000
     30326      2198  MEOH      C1             12.2526137606        0.3227589132       10.4138579263  MEOH      1506            0.0000000000
     30327      2198  MEOH      DC1            12.2186086530        0.3024765087       10.3773467798  MEOH      1506            0.0000000000
     30328      2198  MEOH      O1             11.4828863241       -0.4952681714        9.5347639016  MEOH      1506            0.0000000000
     30329      2198  MEOH      DO1            11.4665805441       -0.5097198623        9.5087068417  MEOH      1506            0.0000000000
     30330      2198  MEOH      HO1            11.1608628955        0.1024404026        8.8419830034  MEOH      1506            0.0000000000
     30331      2198  MEOH      HO2            12.0539273102       -1.2499826740        9.3221181595  MEOH      1506            0.0000000000
     30332      2198  MEOH      H1A            12.5508200735       -0.2252457628       11.3331429048  MEOH      1506            0.0000000000
     30333      2198  MEOH      H1B            11.6682147392        1.2078418332       10.7446554608  MEOH      1506            0.0000000000
     30334      2198  MEOH      H1C            13.1773291357        0.6814178326        9.9132720149  MEOH      1506            0.0000000000
     30335      2198  MEOH      LP1A           11.6886888374       -0.6301790048        9.2858775972  MEOH      1506            0.0000000000
     30336      2198  MEOH      LP1B           11.1501281676       -0.5068190409        9.6426461833  MEOH      1506            0.0000000000
     30337      2199  MEOH      C1              6.4858425580      -16.6548193698        9.6312322770  MEOH      1507            0.0000000000
     30338      2199  MEOH      DC1             6.4893407806      -16.6625015880        9.6388831129  MEOH      1507            0.0000000000
     30339      2199  MEOH      O1              7.0651871411      -16.7437293569       10.9308173076  MEOH      1507            0.0000000000
     30340      2199  MEOH      DO1             7.0753275440      -16.7592188870       10.9363855398  MEOH      1507            0.0000000000
     30341      2199  MEOH      HO1             8.0273040492      -16.7025412153       10.8144790351  MEOH      1507            0.0000000000
     30342      2199  MEOH      HO2             6.6118473868      -16.0728965778       11.4650143214  MEOH      1507            0.0000000000
     30343      2199  MEOH      H1A             5.3813013409      -16.7517619820        9.7013167228  MEOH      1507            0.0000000000
     30344      2199  MEOH      H1B             6.8692760950      -17.4663615190        8.9764811305  MEOH      1507            0.0000000000
     30345      2199  MEOH      H1C             6.7342238974      -15.6745742922        9.1710721976  MEOH      1507            0.0000000000
     30346      2199  MEOH      LP1A            7.0978578366      -16.4240183377       11.0694444690  MEOH      1507            0.0000000000
     30347      2199  MEOH      LP1B            7.1193253692      -17.0790987293       11.0150576561  MEOH      1507            0.0000000000
     30348      2200  MEOH      C1             30.2414887618       -6.7050856219       32.0478496827  MEOH      1508            0.0000000000
     30349      2200  MEOH      DC1            30.2493737940       -6.7156956959       32.0366146575  MEOH      1508            0.0000000000
     30350      2200  MEOH      O1             29.7755134094       -7.7124867325       31.1482514348  MEOH      1508            0.0000000000
     30351      2200  MEOH      DO1            29.7780189160       -7.7314631718       31.1412510712  MEOH      1508            0.0000000000
     30352      2200  MEOH      HO1            28.9320987632       -7.3776212072       30.8055900646  MEOH      1508            0.0000000000
     30353      2200  MEOH      HO2            30.5173992030       -7.8928326105       30.5499364390  MEOH      1508            0.0000000000
     30354      2200  MEOH      H1A            31.2045060872       -7.0074292437       32.5120769603  MEOH      1508            0.0000000000
     30355      2200  MEOH      H1B            29.5180575416       -6.5897641661       32.8831156484  MEOH      1508            0.0000000000
     30356      2200  MEOH      H1C            30.3807414376       -5.7398011409       31.5157260471  MEOH      1508            0.0000000000
     30357      2200  MEOH      LP1A           29.9001026419       -7.6527304320       30.8266823012  MEOH      1508            0.0000000000
     30358      2200  MEOH      LP1B           29.5821659296       -7.9473647886       31.3213093756  MEOH      1508            0.0000000000
     30359      2201  MEOH      C1              1.1322778694       34.9652613987      -27.5879251110  MEOH      1509            0.0000000000
     30360      2201  MEOH      DC1             1.1373943976       34.9558970292      -27.5920820201  MEOH      1509            0.0000000000
     30361      2201  MEOH      O1              0.5222173938       36.2159113894      -27.3302945590  MEOH      1509            0.0000000000
     30362      2201  MEOH      DO1             0.5224625310       36.2043856680      -27.3370881636  MEOH      1509            0.0000000000
     30363      2201  MEOH      HO1             0.3996328024       36.3038603082      -26.3720993773  MEOH      1509            0.0000000000
     30364      2201  MEOH      HO2             1.0732781216       36.8670765574      -27.7920477380  MEOH      1509            0.0000000000
     30365      2201  MEOH      H1A             1.2112939750       34.8587014315      -28.6909765279  MEOH      1509            0.0000000000
     30366      2201  MEOH      H1B             0.5049539047       34.1432100542      -27.1817019807  MEOH      1509            0.0000000000
     30367      2201  MEOH      H1C             2.1457407080       34.9294353578      -27.1341293750  MEOH      1509            0.0000000000
     30368      2201  MEOH      LP1A            0.7672577359       36.4623831052      -27.2889796218  MEOH      1509            0.0000000000
     30369      2201  MEOH      LP1B            0.1738570509       36.1832866852      -27.3392778837  MEOH      1509            0.0000000000
     30370      2202  MEOH      C1            -13.0645233708       -5.5312679729       22.3217249549  MEOH      1510            0.0000000000
     30371      2202  MEOH      DC1           -13.0607814116       -5.5540056789       22.3420221325  MEOH      1510            0.0000000000
     30372      2202  MEOH      O1            -12.6837273436       -4.6365825377       21.2950881026  MEOH      1510            0.0000000000
     30373      2202  MEOH      DO1           -12.6860991437       -4.6641182291       21.3121016860  MEOH      1510            0.0000000000
     30374      2202  MEOH      HO1           -13.0186777038       -4.9426209468       20.4377382618  MEOH      1510            0.0000000000
     30375      2202  MEOH      HO2           -12.9644213150       -3.7620439563       21.6070066243  MEOH      1510            0.0000000000
     30376      2202  MEOH      H1A           -12.6108718660       -5.1883882913       23.2761644955  MEOH      1510            0.0000000000
     30377      2202  MEOH      H1B           -12.7139857290       -6.5575987620       22.0807073763  MEOH      1510            0.0000000000
     30378      2202  MEOH      H1C           -14.1708212911       -5.5077083761       22.4210771502  MEOH      1510            0.0000000000
     30379      2202  MEOH      LP1A          -12.9254345743       -4.3860481250       21.2588924854  MEOH      1510            0.0000000000
     30380      2202  MEOH      LP1B          -12.3721637747       -4.7290625055       21.1651819901  MEOH      1510            0.0000000000
     30381      2203  MEOH      C1             22.6758720126        0.6144381321       -0.9112688862  MEOH      1511            0.0000000000
     30382      2203  MEOH      DC1            22.6694872428        0.6161716712       -0.9168078322  MEOH      1511            0.0000000000
     30383      2203  MEOH      O1             22.6972650393        1.9752968732       -0.4924330209  MEOH      1511            0.0000000000
     30384      2203  MEOH      DO1            22.6876707179        1.9780855651       -0.5060562875  MEOH      1511            0.0000000000
     30385      2203  MEOH      HO1            21.8646854648        2.1567733182       -0.0289920299  MEOH      1511            0.0000000000
     30386      2203  MEOH      HO2            23.5336428928        2.0867076417       -0.0139356565  MEOH      1511            0.0000000000
     30387      2203  MEOH      H1A            23.6278260108        0.3629410098       -1.4259083550  MEOH      1511            0.0000000000
     30388      2203  MEOH      H1B            21.8212512130        0.4385416565       -1.5990222730  MEOH      1511            0.0000000000
     30389      2203  MEOH      H1C            22.5785333394       -0.0387625253       -0.0178624363  MEOH      1511            0.0000000000
     30390      2203  MEOH      LP1A           22.8429890767        2.0006398047       -0.1752229316  MEOH      1511            0.0000000000
     30391      2203  MEOH      LP1B           22.5655447563        2.1800251454       -0.7439009148  MEOH      1511            0.0000000000
     30392      2204  MEOH      C1             22.1019967638        1.9514319490       17.8755854171  MEOH      1512            0.0000000000
     30393      2204  MEOH      DC1            22.1004020136        1.9682720075       17.8742300373  MEOH      1512            0.0000000000
     30394      2204  MEOH      O1             22.2523436883        3.2393392256       17.2733695123  MEOH      1512            0.0000000000
     30395      2204  MEOH      DO1            22.2629563637        3.2553675750       17.2749426689  MEOH      1512            0.0000000000
     30396      2204  MEOH      HO1            21.3583290008        3.5882725746       17.1323615083  MEOH      1512            0.0000000000
     30397      2204  MEOH      HO2            22.9300539110        3.7151954854       17.7785127335  MEOH      1512            0.0000000000
     30398      2204  MEOH      H1A            23.0689314624        1.4050399382       17.8470536926  MEOH      1512            0.0000000000
     30399      2204  MEOH      H1B            21.3433306825        1.3547004360       17.3254415453  MEOH      1512            0.0000000000
     30400      2204  MEOH      H1C            21.7816857517        2.0527017512       18.9345784686  MEOH      1512            0.0000000000
     30401      2204  MEOH      LP1A           22.2777038902        3.4851565857       17.5212216569  MEOH      1512            0.0000000000
     30402      2204  MEOH      LP1B           22.2635742511        3.2079969329       16.9249566320  MEOH      1512            0.0000000000
     30403      2205  MEOH      C1            -35.9853235463       27.3147246572      -36.5804406512  MEOH      1513            0.0000000000
     30404      2205  MEOH      DC1           -35.9749642658       27.3232136261      -36.5701874740  MEOH      1513            0.0000000000
     30405      2205  MEOH      O1            -35.2791183124       28.0906383110      -35.6063601753  MEOH      1513            0.0000000000
     30406      2205  MEOH      DO1           -35.2747331535       28.0963615691      -35.5992622001  MEOH      1513            0.0000000000
     30407      2205  MEOH      HO1           -34.6241464057       27.5024236709      -35.1990331095  MEOH      1513            0.0000000000
     30408      2205  MEOH      HO2           -34.9921101370       28.8948396331      -36.0665628934  MEOH      1513            0.0000000000
     30409      2205  MEOH      H1A           -36.8221898983       27.9096332549      -37.0047748009  MEOH      1513            0.0000000000
     30410      2205  MEOH      H1B           -36.4061848564       26.3965780639      -36.1176193127  MEOH      1513            0.0000000000
     30411      2205  MEOH      H1C           -35.3020331001       27.0123673850      -37.4026421144  MEOH      1513            0.0000000000
     30412      2205  MEOH      LP1A          -35.0032784282       28.2467859027      -35.7547862104  MEOH      1513            0.0000000000
     30413      2205  MEOH      LP1B          -35.4432423940       28.0734077625      -35.2977076295  MEOH      1513            0.0000000000
     30414      2206  MEOH      C1            -28.2538743678      -30.6893119058       33.2993133541  MEOH      1514            0.0000000000
     30415      2206  MEOH      DC1           -28.2461570105      -30.7008456701       33.2958676538  MEOH      1514            0.0000000000
     30416      2206  MEOH      O1            -26.8465889459      -30.8811058911       33.4616793753  MEOH      1514            0.0000000000
     30417      2206  MEOH      DO1           -26.8372561962      -30.8911990120       33.4584785108  MEOH      1514            0.0000000000
     30418      2206  MEOH      HO1           -26.5153393420      -31.1930343643       32.6050147214  MEOH      1514            0.0000000000
     30419      2206  MEOH      HO2           -26.5143898397      -30.0476766348       33.8303790206  MEOH      1514            0.0000000000
     30420      2206  MEOH      H1A           -28.7025318782      -30.3701528239       34.2642822234  MEOH      1514            0.0000000000
     30421      2206  MEOH      H1B           -28.7476634888      -31.6423311253       33.0125248023  MEOH      1514            0.0000000000
     30422      2206  MEOH      H1C           -28.4555733159      -29.9068657341       32.5368066175  MEOH      1514            0.0000000000
     30423      2206  MEOH      LP1A          -26.6760625559      -30.5844645181       33.3880271783  MEOH      1514            0.0000000000
     30424      2206  MEOH      LP1B          -26.7822281200      -31.2064712661       33.5734606655  MEOH      1514            0.0000000000
     30425      2207  MEOH      C1             23.2498546354        7.9924623749      -34.1745953822  MEOH      1515            0.0000000000
     30426      2207  MEOH      DC1            23.2446073516        7.9976224411      -34.1714907518  MEOH      1515            0.0000000000
     30427      2207  MEOH      O1             24.0737923145        7.5666855888      -35.2594443507  MEOH      1515            0.0000000000
     30428      2207  MEOH      DO1            24.0680588971        7.5720736987      -35.2580328116  MEOH      1515            0.0000000000
     30429      2207  MEOH      HO1            24.4009880604        6.6769129833      -35.0541454115  MEOH      1515            0.0000000000
     30430      2207  MEOH      HO2            23.5588341798        7.7291843824      -36.0652434961  MEOH      1515            0.0000000000
     30431      2207  MEOH      H1A            22.9527240091        9.0492529515      -34.3455575680  MEOH      1515            0.0000000000
     30432      2207  MEOH      H1B            23.8123042031        7.9203428050      -33.2192052779  MEOH      1515            0.0000000000
     30433      2207  MEOH      H1C            22.3329750974        7.3682078871      -34.1116728181  MEOH      1515            0.0000000000
     30434      2207  MEOH      LP1A           23.8791611172        7.4051246675      -35.5013467396  MEOH      1515            0.0000000000
     30435      2207  MEOH      LP1B           24.4047066063        7.6667847402      -35.2048926201  MEOH      1515            0.0000000000
     30436      2208  MEOH      C1             35.0358872527        5.6813353476        2.5590176500  MEOH      1516            0.0000000000
     30437      2208  MEOH      DC1            35.0378309718        5.6873857664        2.5592866660  MEOH      1516            0.0000000000
     30438      2208  MEOH      O1             34.4959069143        6.6189771811        1.6261541269  MEOH      1516            0.0000000000
     30439      2208  MEOH      DO1            34.4922105709        6.6206139241        1.6278954694  MEOH      1516            0.0000000000
     30440      2208  MEOH      HO1            34.6719606104        7.5138280789        1.9565281086  MEOH      1516            0.0000000000
     30441      2208  MEOH      HO2            34.8158014436        6.3470188896        0.7517365049  MEOH      1516            0.0000000000
     30442      2208  MEOH      H1A            34.8715053060        4.6481510169        2.1850795332  MEOH      1516            0.0000000000
     30443      2208  MEOH      H1B            34.5581535290        5.7868362057        3.5564949972  MEOH      1516            0.0000000000
     30444      2208  MEOH      H1C            36.1262109245        5.8597878577        2.6759364030  MEOH      1516            0.0000000000
     30445      2208  MEOH      LP1A           34.7349605600        6.6967533992        1.3826295606  MEOH      1516            0.0000000000
     30446      2208  MEOH      LP1B           34.1627293719        6.6896732264        1.7067444143  MEOH      1516            0.0000000000
     30447      2209  MEOH      C1             19.2480346654       16.0774361580       18.7206113652  MEOH      1517            0.0000000000
     30448      2209  MEOH      DC1            19.2542069240       16.0872432867       18.7165005297  MEOH      1517            0.0000000000
     30449      2209  MEOH      O1             18.0158679325       15.5738801515       18.1984960998  MEOH      1517            0.0000000000
     30450      2209  MEOH      DO1            18.0236216073       15.5751721410       18.1907048650  MEOH      1517            0.0000000000
     30451      2209  MEOH      HO1            17.6872013221       16.1918142256       17.5269041547  MEOH      1517            0.0000000000
     30452      2209  MEOH      HO2            18.1568840748       14.6329101581       18.0098431936  MEOH      1517            0.0000000000
     30453      2209  MEOH      H1A            19.5411330898       15.4799228348       19.6102136045  MEOH      1517            0.0000000000
     30454      2209  MEOH      H1B            19.1162985499       17.1352465469       19.0336669163  MEOH      1517            0.0000000000
     30455      2209  MEOH      H1C            20.0488884954       16.0066658523       17.9538351875  MEOH      1517            0.0000000000
     30456      2209  MEOH      LP1A           18.0784920295       15.3630026565       17.9262665926  MEOH      1517            0.0000000000
     30457      2209  MEOH      LP1B           17.7476861705       15.6913527792       18.3902738990  MEOH      1517            0.0000000000
     30458      2210  MEOH      C1            -16.8161874460      -20.5487488678       -9.2769195232  MEOH      1518            0.0000000000
     30459      2210  MEOH      DC1           -16.8098688495      -20.5666676207       -9.2702776236  MEOH      1518            0.0000000000
     30460      2210  MEOH      O1            -16.3507183653      -21.7845132419       -8.7256213534  MEOH      1518            0.0000000000
     30461      2210  MEOH      DO1           -16.3468518340      -21.8025688569       -8.7206921110  MEOH      1518            0.0000000000
     30462      2210  MEOH      HO1           -16.4209216897      -22.4312508882       -9.4451364054  MEOH      1518            0.0000000000
     30463      2210  MEOH      HO2           -15.4881524253      -21.5860719913       -8.3287573078  MEOH      1518            0.0000000000
     30464      2210  MEOH      H1A           -16.8169459825      -19.7580660003       -8.4964446496  MEOH      1518            0.0000000000
     30465      2210  MEOH      H1B           -17.8510166454      -20.6681234518       -9.6631826934  MEOH      1518            0.0000000000
     30466      2210  MEOH      H1C           -16.1552709365      -20.2279524708      -10.1103462091  MEOH      1518            0.0000000000
     30467      2210  MEOH      LP1A          -16.0046451344      -21.8124823670       -8.7697920097  MEOH      1518            0.0000000000
     30468      2210  MEOH      LP1B          -16.6170206229      -21.9580966326       -8.5791566338  MEOH      1518            0.0000000000
     30469      2211  MEOH      C1             15.1634755884       15.9721390118      -25.4377479646  MEOH      1519            0.0000000000
     30470      2211  MEOH      DC1            15.1570657888       15.9908749256      -25.4303768492  MEOH      1519            0.0000000000
     30471      2211  MEOH      O1             16.4120096211       16.5421534236      -25.0249228523  MEOH      1519            0.0000000000
     30472      2211  MEOH      DO1            16.4122328517       16.5609566946      -25.0199070871  MEOH      1519            0.0000000000
     30473      2211  MEOH      HO1            17.0704173254       15.8461732887      -25.1766164473  MEOH      1519            0.0000000000
     30474      2211  MEOH      HO2            16.4894240257       17.3929035567      -25.4844130290  MEOH      1519            0.0000000000
     30475      2211  MEOH      H1A            14.3105400634       16.6537654303      -25.2323035264  MEOH      1519            0.0000000000
     30476      2211  MEOH      H1B            14.9902089925       15.0097217976      -24.9104408500  MEOH      1519            0.0000000000
     30477      2211  MEOH      H1C            15.1793142555       15.7892377159      -26.5334747794  MEOH      1519            0.0000000000
     30478      2211  MEOH      LP1A           16.5628177316       16.7076495960      -25.2939357345  MEOH      1519            0.0000000000
     30479      2211  MEOH      LP1B           16.4643923801       16.4816409741      -24.6841967306  MEOH      1519            0.0000000000
     30480      2212  MEOH      C1            -24.2113876271       -2.9857632999       -7.8669894451  MEOH      1520            0.0000000000
     30481      2212  MEOH      DC1           -24.2150774897       -2.9910737960       -7.8559435450  MEOH      1520            0.0000000000
     30482      2212  MEOH      O1            -22.9089934645       -2.9894080399       -8.4500696475  MEOH      1520            0.0000000000
     30483      2212  MEOH      DO1           -22.9125669877       -2.9984616356       -8.4349324708  MEOH      1520            0.0000000000
     30484      2212  MEOH      HO1           -22.9999479432       -2.8780045332       -9.4093488260  MEOH      1520            0.0000000000
     30485      2212  MEOH      HO2           -22.3823620892       -2.3517534780       -7.9431613183  MEOH      1520            0.0000000000
     30486      2212  MEOH      H1A           -24.1179173127       -3.1499060369       -6.7721645902  MEOH      1520            0.0000000000
     30487      2212  MEOH      H1B           -24.8339179053       -3.7930818360       -8.3085931520  MEOH      1520            0.0000000000
     30488      2212  MEOH      H1C           -24.6974252920       -2.0026306617       -8.0445805658  MEOH      1520            0.0000000000
     30489      2212  MEOH      LP1A          -22.7802554984       -2.6640294351       -8.4575060180  MEOH      1520            0.0000000000
     30490      2212  MEOH      LP1B          -22.8145649072       -3.3167987529       -8.5300607010  MEOH      1520            0.0000000000
     30491      2213  MEOH      C1            -18.7137061814      -11.8077446196       -5.9834700499  MEOH      1521            0.0000000000
     30492      2213  MEOH      DC1           -18.7122391212      -11.7990780040       -5.9689036191  MEOH      1521            0.0000000000
     30493      2213  MEOH      O1            -19.5921603463      -11.7065370278       -4.8598306878  MEOH      1521            0.0000000000
     30494      2213  MEOH      DO1           -19.5871034745      -11.6912318323       -4.8432749039  MEOH      1521            0.0000000000
     30495      2213  MEOH      HO1           -20.4477016130      -12.0421771017       -5.1701448541  MEOH      1521            0.0000000000
     30496      2213  MEOH      HO2           -19.1388248064      -12.1594643958       -4.1316523517  MEOH      1521            0.0000000000
     30497      2213  MEOH      H1A           -17.7046340947      -11.4258794395       -5.7183785384  MEOH      1521            0.0000000000
     30498      2213  MEOH      H1B           -19.1137840322      -11.2204683575       -6.8374989172  MEOH      1521            0.0000000000
     30499      2213  MEOH      H1C           -18.6204926798      -12.8690110832       -6.2986616365  MEOH      1521            0.0000000000
     30500      2213  MEOH      LP1A          -19.5763907139      -11.9993797347       -4.6687954353  MEOH      1521            0.0000000000
     30501      2213  MEOH      LP1B          -19.7464600165      -11.3924032703       -4.8564256666  MEOH      1521            0.0000000000
     30502      2214  MEOH      C1             30.6763804508       22.1111209079      -15.6708446503  MEOH      1522            0.0000000000
     30503      2214  MEOH      DC1            30.6680345950       22.1072873256      -15.6671185064  MEOH      1522            0.0000000000
     30504      2214  MEOH      O1             30.4737297559       20.7411636472      -15.3090395904  MEOH      1522            0.0000000000
     30505      2214  MEOH      DO1            30.4623586555       20.7379604768      -15.3111521320  MEOH      1522            0.0000000000
     30506      2214  MEOH      HO1            31.2075419216       20.2343826601      -15.6906057534  MEOH      1522            0.0000000000
     30507      2214  MEOH      HO2            30.3350174810       20.7377620580      -14.3490149374  MEOH      1522            0.0000000000
     30508      2214  MEOH      H1A            29.8766821337       22.7427372477      -15.2282789474  MEOH      1522            0.0000000000
     30509      2214  MEOH      H1B            30.6520096847       22.2221657932      -16.7760125558  MEOH      1522            0.0000000000
     30510      2214  MEOH      H1C            31.6581749121       22.4611163927      -15.2862620229  MEOH      1522            0.0000000000
     30511      2214  MEOH      LP1A           30.6269300758       20.6746627780      -15.0014565993  MEOH      1522            0.0000000000
     30512      2214  MEOH      LP1B           30.2770492788       20.5814192560      -15.5504904538  MEOH      1522            0.0000000000
     30513      2215  MEOH      C1             36.5917657485       -2.7361090350       33.5324883035  MEOH      1523            0.0000000000
     30514      2215  MEOH      DC1            36.6093445153       -2.7390367057       33.5375583057  MEOH      1523            0.0000000000
     30515      2215  MEOH      O1             35.2975482591       -2.1303980889       33.5806724129  MEOH      1523            0.0000000000
     30516      2215  MEOH      DO1            35.3104430536       -2.1246733783       33.5916692459  MEOH      1523            0.0000000000
     30517      2215  MEOH      HO1            34.6454362570       -2.8366224422       33.7106612589  MEOH      1523            0.0000000000
     30518      2215  MEOH      HO2            35.3642983905       -1.3937221760       34.2081698387  MEOH      1523            0.0000000000
     30519      2215  MEOH      H1A            37.3490392650       -1.9724500192       33.2537720851  MEOH      1523            0.0000000000
     30520      2215  MEOH      H1B            36.6011000973       -3.5517953445       32.7782405227  MEOH      1523            0.0000000000
     30521      2215  MEOH      H1C            36.8459958705       -3.1524216311       34.5306725888  MEOH      1523            0.0000000000
     30522      2215  MEOH      LP1A           35.2196510092       -2.0404607972       33.9098278503  MEOH      1523            0.0000000000
     30523      2215  MEOH      LP1B           35.1635070408       -2.1085779263       33.2580940002  MEOH      1523            0.0000000000
     30524      2216  MEOH      C1            -27.4587742813      -15.9714531984      -13.2302603433  MEOH      1524            0.0000000000
     30525      2216  MEOH      DC1           -27.4639019138      -15.9735486238      -13.2271381191  MEOH      1524            0.0000000000
     30526      2216  MEOH      O1            -28.0773451588      -16.8678524389      -14.1542548935  MEOH      1524            0.0000000000
     30527      2216  MEOH      DO1           -28.0915179965      -16.8692813548      -14.1539192442  MEOH      1524            0.0000000000
     30528      2216  MEOH      HO1           -27.6678844367      -17.7370498843      -14.0210718695  MEOH      1524            0.0000000000
     30529      2216  MEOH      HO2           -29.0343377070      -16.7369769301      -14.0651658104  MEOH      1524            0.0000000000
     30530      2216  MEOH      H1A           -27.7518880827      -14.9279235665      -13.4740865251  MEOH      1524            0.0000000000
     30531      2216  MEOH      H1B           -26.3536001855      -16.0608068531      -13.3004539647  MEOH      1524            0.0000000000
     30532      2216  MEOH      H1C           -27.7831906783      -16.2091398249      -12.1946059273  MEOH      1524            0.0000000000
     30533      2216  MEOH      LP1A          -28.3613337078      -17.0121216969      -14.0092139158  MEOH      1524            0.0000000000
     30534      2216  MEOH      LP1B          -27.9036210046      -16.8652813669      -14.4580859450  MEOH      1524            0.0000000000
     30535      2217  MEOH      C1             -2.7531272708       -3.0635077803       27.6747399023  MEOH      1525            0.0000000000
     30536      2217  MEOH      DC1            -2.7396258891       -3.0614879933       27.6732600352  MEOH      1525            0.0000000000
     30537      2217  MEOH      O1             -2.8729834238       -4.3759899866       27.1172846050  MEOH      1525            0.0000000000
     30538      2217  MEOH      DO1            -2.8658940581       -4.3797281900       27.1181130625  MEOH      1525            0.0000000000
     30539      2217  MEOH      HO1            -2.1231432008       -4.5209970304       26.5192774160  MEOH      1525            0.0000000000
     30540      2217  MEOH      HO2            -3.0505396419       -4.9752986154       27.8590412747  MEOH      1525            0.0000000000
     30541      2217  MEOH      H1A            -3.6879675669       -2.8068987340       28.2174612108  MEOH      1525            0.0000000000
     30542      2217  MEOH      H1B            -2.6118270803       -2.3137815576       26.8671101313  MEOH      1525            0.0000000000
     30543      2217  MEOH      H1C            -1.9067018064       -3.0204427292       28.3930924175  MEOH      1525            0.0000000000
     30544      2217  MEOH      LP1A           -2.7122512984       -4.6087381485       27.3234240652  MEOH      1525            0.0000000000
     30545      2217  MEOH      LP1B           -3.0634269483       -4.3644863932       26.8238584110  MEOH      1525            0.0000000000
     30546      2218  MEOH      C1             15.3007973820        4.2881478394      -29.0637075666  MEOH      1526            0.0000000000
     30547      2218  MEOH      DC1            15.3018085999        4.2797125396      -29.0620139673  MEOH      1526            0.0000000000
     30548      2218  MEOH      O1             16.4301737007        5.0041940613      -28.5575345396  MEOH      1526            0.0000000000
     30549      2218  MEOH      DO1            16.4331290403        5.0013722600      -28.5541744293  MEOH      1526            0.0000000000
     30550      2218  MEOH      HO1            17.2117571359        4.4440539378      -28.6850899264  MEOH      1526            0.0000000000
     30551      2218  MEOH      HO2            16.3947428288        5.8776772454      -28.9778579632  MEOH      1526            0.0000000000
     30552      2218  MEOH      H1A            14.3790868473        4.8930054945      -28.9261651804  MEOH      1526            0.0000000000
     30553      2218  MEOH      H1B            15.1812988503        3.3261278094      -28.5209750701  MEOH      1526            0.0000000000
     30554      2218  MEOH      H1C            15.4377604832        4.0954487207      -30.1492623374  MEOH      1526            0.0000000000
     30555      2218  MEOH      LP1A           16.5690861595        5.2026897190      -28.8101267063  MEOH      1526            0.0000000000
     30556      2218  MEOH      LP1B           16.4735262245        4.9343581202      -28.2173235756  MEOH      1526            0.0000000000
     30557      2219  MEOH      C1             -7.7734509945       -4.4188879706       23.9362181008  MEOH      1527            0.0000000000
     30558      2219  MEOH      DC1            -7.7650143624       -4.4343339993       23.9498097256  MEOH      1527            0.0000000000
     30559      2219  MEOH      O1             -8.0338718919       -5.7806842882       24.2714604244  MEOH      1527            0.0000000000
     30560      2219  MEOH      DO1            -8.0321586473       -5.7898125833       24.2773769139  MEOH      1527            0.0000000000
     30561      2219  MEOH      HO1            -7.9126509744       -6.2870765580       23.4530642128  MEOH      1527            0.0000000000
     30562      2219  MEOH      HO2            -7.4974881158       -5.9692809244       25.0573508452  MEOH      1527            0.0000000000
     30563      2219  MEOH      H1A            -7.9979097125       -3.7654343850       24.8062397648  MEOH      1527            0.0000000000
     30564      2219  MEOH      H1B            -8.4259448706       -4.0962803670       23.0968748601  MEOH      1527            0.0000000000
     30565      2219  MEOH      H1C            -6.7120475173       -4.2912703222       23.6337988618  MEOH      1527            0.0000000000
     30566      2219  MEOH      LP1A           -7.7390951646       -5.9360980435       24.3784802624  MEOH      1527            0.0000000000
     30567      2219  MEOH      LP1B           -8.3744562147       -5.8507621744       24.2315679574  MEOH      1527            0.0000000000
     30568      2220  MEOH      C1             20.9676906466      -29.6563883554       28.4758285220  MEOH      1528            0.0000000000
     30569      2220  MEOH      DC1            20.9623144550      -29.6468693205       28.4756617908  MEOH      1528            0.0000000000
     30570      2220  MEOH      O1             19.7279211000      -29.0301077192       28.8078890694  MEOH      1528            0.0000000000
     30571      2220  MEOH      DO1            19.7240586583      -29.0248110037       28.8097842083  MEOH      1528            0.0000000000
     30572      2220  MEOH      HO1            19.5448050227      -28.3610729373       28.1298323145  MEOH      1528            0.0000000000
     30573      2220  MEOH      HO2            19.0972264833      -29.7543068487       28.9444903939  MEOH      1528            0.0000000000
     30574      2220  MEOH      H1A            21.2115647692      -30.4265419267       29.2385276035  MEOH      1528            0.0000000000
     30575      2220  MEOH      H1B            21.7841995931      -28.9033891081       28.4508030387  MEOH      1528            0.0000000000
     30576      2220  MEOH      H1C            20.8972457122      -30.1542660851       27.4851336760  MEOH      1528            0.0000000000
     30577      2220  MEOH      LP1A           19.4623885502      -29.2055692019       28.6622671856  MEOH      1528            0.0000000000
     30578      2220  MEOH      LP1B           19.7847114921      -28.7563600525       29.0184527567  MEOH      1528            0.0000000000
     30579      2221  MEOH      C1             10.0859799950       29.7081877480      -29.2479030728  MEOH      1529            0.0000000000
     30580      2221  MEOH      DC1            10.0879126715       29.6950369121      -29.2471392216  MEOH      1529            0.0000000000
     30581      2221  MEOH      O1             10.1475985167       30.3647286864      -27.9785081017  MEOH      1529            0.0000000000
     30582      2221  MEOH      DO1            10.1618544271       30.3612264485      -27.9834732634  MEOH      1529            0.0000000000
     30583      2221  MEOH      HO1             9.2904662719       30.2423727924      -27.5411828784  MEOH      1529            0.0000000000
     30584      2221  MEOH      HO2            10.9710727522       30.0740077813      -27.5562859580  MEOH      1529            0.0000000000
     30585      2221  MEOH      H1A            10.9743688903       29.9938150034      -29.8508153742  MEOH      1529            0.0000000000
     30586      2221  MEOH      H1B             9.1689284236       30.0149385297      -29.7949326641  MEOH      1529            0.0000000000
     30587      2221  MEOH      H1C            10.0780059756       28.6052157460      -29.1148234807  MEOH      1529            0.0000000000
     30588      2221  MEOH      LP1A           10.2682287115       30.1438850031      -27.7352460544  MEOH      1529            0.0000000000
     30589      2221  MEOH      LP1B           10.0480877774       30.6986591764      -28.0114935624  MEOH      1529            0.0000000000
     30590      2222  MEOH      C1             31.4692034900      -36.5614174861        2.8176235232  MEOH      1530            0.0000000000
     30591      2222  MEOH      DC1            31.4529985827      -36.5738351585        2.8047951368  MEOH      1530            0.0000000000
     30592      2222  MEOH      O1             30.1828323528      -37.0751038357        3.1458781412  MEOH      1530            0.0000000000
     30593      2222  MEOH      DO1            30.1616049350      -37.0650874031        3.1355215387  MEOH      1530            0.0000000000
     30594      2222  MEOH      HO1            29.9474921836      -37.6938321834        2.4368716271  MEOH      1530            0.0000000000
     30595      2222  MEOH      HO2            30.2713276583      -37.4198682285        4.0482118346  MEOH      1530            0.0000000000
     30596      2222  MEOH      H1A            31.8383025315      -35.8943763238        3.6257961450  MEOH      1530            0.0000000000
     30597      2222  MEOH      H1B            31.4165511526      -35.9916303474        1.8653150918  MEOH      1530            0.0000000000
     30598      2222  MEOH      H1C            32.1784103344      -37.4101018267        2.7123546210  MEOH      1530            0.0000000000
     30599      2222  MEOH      LP1A           30.2153634285      -37.3605787544        3.3457425950  MEOH      1530            0.0000000000
     30600      2222  MEOH      LP1B           29.9338177649      -36.8696063444        3.0107392641  MEOH      1530            0.0000000000
     30601      2223  MEOH      C1             -5.7799044143      -14.3359832257        3.9455258740  MEOH      1531            0.0000000000
     30602      2223  MEOH      DC1            -5.7697870375      -14.3441692841        3.9495415901  MEOH      1531            0.0000000000
     30603      2223  MEOH      O1             -5.3954146614      -13.0313899503        4.3564228747  MEOH      1531            0.0000000000
     30604      2223  MEOH      DO1            -5.3884862378      -13.0375245386        4.3637633026  MEOH      1531            0.0000000000
     30605      2223  MEOH      HO1            -5.4266091068      -12.4652491119        3.5693959008  MEOH      1531            0.0000000000
     30606      2223  MEOH      HO2            -5.9608600468      -12.8164152021        5.1146823124  MEOH      1531            0.0000000000
     30607      2223  MEOH      H1A            -5.7640060982      -15.0292725461        4.8135225115  MEOH      1531            0.0000000000
     30608      2223  MEOH      H1B            -5.0959254661      -14.6990083929        3.1488411644  MEOH      1531            0.0000000000
     30609      2223  MEOH      H1C            -6.8113338490      -14.2894560155        3.5352704143  MEOH      1531            0.0000000000
     30610      2223  MEOH      LP1A           -5.6766000581      -12.8510539625        4.4608915503  MEOH      1531            0.0000000000
     30611      2223  MEOH      LP1B           -5.0481030065      -12.9956730110        4.3319501420  MEOH      1531            0.0000000000
     30612      2224  MEOH      C1             31.3094481616      -11.1771277580       28.6168432415  MEOH      1532            0.0000000000
     30613      2224  MEOH      DC1            31.3119181811      -11.2001920987       28.6239069996  MEOH      1532            0.0000000000
     30614      2224  MEOH      O1             32.1470006766      -12.0429187892       29.3893475373  MEOH      1532            0.0000000000
     30615      2224  MEOH      DO1            32.1368191439      -12.0653565959       29.3979365850  MEOH      1532            0.0000000000
     30616      2224  MEOH      HO1            32.6008640935      -12.6206103835       28.7559594883  MEOH      1532            0.0000000000
     30617      2224  MEOH      HO2            32.6929611711      -11.4451227328       29.9236386707  MEOH      1532            0.0000000000
     30618      2224  MEOH      H1A            30.8397121863      -10.4110921102       29.2701873315  MEOH      1532            0.0000000000
     30619      2224  MEOH      H1B            30.5067326665      -11.7583137450       28.1146563399  MEOH      1532            0.0000000000
     30620      2224  MEOH      H1C            31.9202692883      -10.6470017156       27.8551445275  MEOH      1532            0.0000000000
     30621      2224  MEOH      LP1A           32.4608273809      -11.8952559209       29.4363419731  MEOH      1532            0.0000000000
     30622      2224  MEOH      LP1B           31.9696723085      -12.3303435016       29.4812261777  MEOH      1532            0.0000000000
     30623      2225  MEOH      C1              9.5325333723       24.0810338804       -0.8776882606  MEOH      1533            0.0000000000
     30624      2225  MEOH      DC1             9.5336881987       24.0793337306       -0.8713778955  MEOH      1533            0.0000000000
     30625      2225  MEOH      O1             10.0173280042       25.3802960306       -1.2321885156  MEOH      1533            0.0000000000
     30626      2225  MEOH      DO1            10.0214752206       25.3860439620       -1.2136941485  MEOH      1533            0.0000000000
     30627      2225  MEOH      HO1            10.4544192866       25.3002851402       -2.0944236739  MEOH      1533            0.0000000000
     30628      2225  MEOH      HO2             9.2700339186       25.9888081526       -1.1218955057  MEOH      1533            0.0000000000
     30629      2225  MEOH      H1A             9.1113538580       24.1074226718        0.1500434412  MEOH      1533            0.0000000000
     30630      2225  MEOH      H1B            10.3486252177       23.3276065125       -0.9034235017  MEOH      1533            0.0000000000
     30631      2225  MEOH      H1C             8.7310001541       23.7740500729       -1.5831146863  MEOH      1533            0.0000000000
     30632      2225  MEOH      LP1A            9.7707795090       25.5563457039       -1.4074607383  MEOH      1533            0.0000000000
     30633      2225  MEOH      LP1B           10.3407595234       25.4258098799       -1.1064087800  MEOH      1533            0.0000000000
     30634      2226  MEOH      C1              7.3075816546       -8.9742535136      -23.6842578200  MEOH      1534            0.0000000000
     30635      2226  MEOH      DC1             7.3013958857       -8.9690550149      -23.6847415133  MEOH      1534            0.0000000000
     30636      2226  MEOH      O1              6.6375908345       -7.9317482267      -22.9685727022  MEOH      1534            0.0000000000
     30637      2226  MEOH      DO1             6.6273751804       -7.9316053204      -22.9761995126  MEOH      1534            0.0000000000
     30638      2226  MEOH      HO1             6.5726009229       -7.1454243757      -23.5328165438  MEOH      1534            0.0000000000
     30639      2226  MEOH      HO2             5.8638939678       -8.3304804645      -22.5404304800  MEOH      1534            0.0000000000
     30640      2226  MEOH      H1A             7.5987635771       -9.7764804897      -22.9729449721  MEOH      1534            0.0000000000
     30641      2226  MEOH      H1B             8.2264136114       -8.5859235202      -24.1734087694  MEOH      1534            0.0000000000
     30642      2226  MEOH      H1C             6.6365926554       -9.4075990027      -24.4564666339  MEOH      1534            0.0000000000
     30643      2226  MEOH      LP1A            6.2920569602       -7.9545902404      -23.0194115074  MEOH      1534            0.0000000000
     30644      2226  MEOH      LP1B            6.8699654816       -7.7414242739      -22.7889096386  MEOH      1534            0.0000000000
     30645      2227  MEOH      C1             14.6349092017       -1.2168058647      -24.2895696815  MEOH      1535            0.0000000000
     30646      2227  MEOH      DC1            14.6434265243       -1.2256884505      -24.2902264365  MEOH      1535            0.0000000000
     30647      2227  MEOH      O1             13.3184909992       -0.8085492080      -23.9229225001  MEOH      1535            0.0000000000
     30648      2227  MEOH      DO1            13.3237757290       -0.8136105637      -23.9290686411  MEOH      1535            0.0000000000
     30649      2227  MEOH      HO1            12.9832315889       -0.2058975741      -24.6050604158  MEOH      1535            0.0000000000
     30650      2227  MEOH      HO2            12.8392486867       -1.6167203132      -23.6819115641  MEOH      1535            0.0000000000
     30651      2227  MEOH      H1A            15.0903470483       -1.7880513920      -23.4525655504  MEOH      1535            0.0000000000
     30652      2227  MEOH      H1B            15.2648081083       -0.3257286542      -24.4982075821  MEOH      1535            0.0000000000
     30653      2227  MEOH      H1C            14.5837884790       -1.8619999334      -25.1925825751  MEOH      1535            0.0000000000
     30654      2227  MEOH      LP1A           13.0831891885       -1.0332785048      -24.0518790858  MEOH      1535            0.0000000000
     30655      2227  MEOH      LP1B           13.3334603168       -0.5217096640      -23.7229250112  MEOH      1535            0.0000000000
     30656      2228  MEOH      C1            -15.2099877582        0.7056765948        2.4132543976  MEOH      1536            0.0000000000
     30657      2228  MEOH      DC1           -15.2270067938        0.6986989438        2.3970626193  MEOH      1536            0.0000000000
     30658      2228  MEOH      O1            -13.8243156285        0.8964538977        2.6930822816  MEOH      1536            0.0000000000
     30659      2228  MEOH      DO1           -13.8325541931        0.8949220514        2.6701926945  MEOH      1536            0.0000000000
     30660      2228  MEOH      HO1           -13.6419001976        0.5587977657        3.5839318464  MEOH      1536            0.0000000000
     30661      2228  MEOH      HO2           -13.3278007759        0.6246182808        1.9053777686  MEOH      1536            0.0000000000
     30662      2228  MEOH      H1A           -15.4723153410        1.2152848110        1.4615166680  MEOH      1536            0.0000000000
     30663      2228  MEOH      H1B           -15.8145127321        1.1386477433        3.2387279226  MEOH      1536            0.0000000000
     30664      2228  MEOH      H1C           -15.4273069776       -0.3806232918        2.3293144471  MEOH      1536            0.0000000000
     30665      2228  MEOH      LP1A          -13.6410626083        0.6183641159        2.5854514130  MEOH      1536            0.0000000000
     30666      2228  MEOH      LP1B          -13.7735579393        1.2112876488        2.8373160021  MEOH      1536            0.0000000000
     30667      2229  MEOH      C1            -19.3236075629      -24.8910222483        4.2024211601  MEOH      1537            0.0000000000
     30668      2229  MEOH      DC1           -19.3150934141      -24.8905196619        4.1897044251  MEOH      1537            0.0000000000
     30669      2229  MEOH      O1            -20.1873264569      -24.3778843615        5.2170464886  MEOH      1537            0.0000000000
     30670      2229  MEOH      DO1           -20.1693649021      -24.3767122329        5.2016332000  MEOH      1537            0.0000000000
     30671      2229  MEOH      HO1           -20.9589569690      -24.9538990874        5.3340652426  MEOH      1537            0.0000000000
     30672      2229  MEOH      HO2           -19.6147220695      -24.1837573945        5.9755574880  MEOH      1537            0.0000000000
     30673      2229  MEOH      H1A           -18.4762240934      -24.1882649517        4.0527734459  MEOH      1537            0.0000000000
     30674      2229  MEOH      H1B           -19.8752965642      -24.9883243877        3.2429981359  MEOH      1537            0.0000000000
     30675      2229  MEOH      H1C           -18.9179175233      -25.8791980320        4.5077819529  MEOH      1537            0.0000000000
     30676      2229  MEOH      LP1A          -20.0925876289      -24.5035044230        5.5296871043  MEOH      1537            0.0000000000
     30677      2229  MEOH      LP1B          -20.4197496459      -24.1573779308        5.0761338376  MEOH      1537            0.0000000000
     30678      2230  MEOH      C1             -0.5341296589       15.6879200981      -23.6049004308  MEOH      1538            0.0000000000
     30679      2230  MEOH      DC1            -0.5219651497       15.6856215304      -23.6013578759  MEOH      1538            0.0000000000
     30680      2230  MEOH      O1             -0.6844430031       14.3319494948      -23.1816707506  MEOH      1538            0.0000000000
     30681      2230  MEOH      DO1            -0.6735491046       14.3274463253      -23.1752475481  MEOH      1538            0.0000000000
     30682      2230  MEOH      HO1            -1.6389313965       14.1591800391      -23.1832900579  MEOH      1538            0.0000000000
     30683      2230  MEOH      HO2            -0.0992167970       13.8142183840      -23.7564444328  MEOH      1538            0.0000000000
     30684      2230  MEOH      H1A             0.5398290589       15.9698927370      -23.5671498896  MEOH      1538            0.0000000000
     30685      2230  MEOH      H1B            -1.1180399116       16.3634242610      -22.9437923123  MEOH      1538            0.0000000000
     30686      2230  MEOH      H1C            -0.8972642100       15.8072090140      -24.6480804022  MEOH      1538            0.0000000000
     30687      2230  MEOH      LP1A           -0.6727646030       14.1181393260      -23.4585259956  MEOH      1538            0.0000000000
     30688      2230  MEOH      LP1B           -0.7099173735       14.3175310667      -22.8328969480  MEOH      1538            0.0000000000
     30689      2231  MEOH      C1             -8.4345660658       10.9874909958       15.3836275809  MEOH      1539            0.0000000000
     30690      2231  MEOH      DC1            -8.4251342335       10.9908889821       15.3894988061  MEOH      1539            0.0000000000
     30691      2231  MEOH      O1             -7.0946577132       10.8665228993       15.8667628287  MEOH      1539            0.0000000000
     30692      2231  MEOH      DO1            -7.0920980807       10.8759575734       15.8638071735  MEOH      1539            0.0000000000
     30693      2231  MEOH      HO1            -6.6343456414       10.2067546461       15.3248046674  MEOH      1539            0.0000000000
     30694      2231  MEOH      HO2            -6.7480785933       11.7676048426       15.9607534966  MEOH      1539            0.0000000000
     30695      2231  MEOH      H1A            -9.0369175214       11.5799319080       16.1050896318  MEOH      1539            0.0000000000
     30696      2231  MEOH      H1B            -8.8975086313        9.9829107799       15.2795902247  MEOH      1539            0.0000000000
     30697      2231  MEOH      H1C            -8.4465624339       11.4938231669       14.3947874423  MEOH      1539            0.0000000000
     30698      2231  MEOH      LP1A           -6.8875595517       11.0972503447       15.7043584032  MEOH      1539            0.0000000000
     30699      2231  MEOH      LP1B           -7.0795272877       10.6234374922       16.1181202537  MEOH      1539            0.0000000000
     30700      2232  MEOH      C1             14.0776708042        4.9571076273       -3.7392828356  MEOH      1540            0.0000000000
     30701      2232  MEOH      DC1            14.0897332653        4.9598777991       -3.7294009622  MEOH      1540            0.0000000000
     30702      2232  MEOH      O1             14.2044533203        4.8803751484       -2.3174115166  MEOH      1540            0.0000000000
     30703      2232  MEOH      DO1            14.2200908884        4.8872756406       -2.3019647404  MEOH      1540            0.0000000000
     30704      2232  MEOH      HO1            13.2962193255        4.9418931522       -1.9824092084  MEOH      1540            0.0000000000
     30705      2232  MEOH      HO2            14.7494286297        4.0962469085       -2.1469861207  MEOH      1540            0.0000000000
     30706      2232  MEOH      H1A            15.0822927171        4.9751163586       -4.2133413754  MEOH      1540            0.0000000000
     30707      2232  MEOH      H1B            13.5379244048        5.8887959563       -4.0130558844  MEOH      1540            0.0000000000
     30708      2232  MEOH      H1C            13.5057744241        4.0848596774       -4.1219563836  MEOH      1540            0.0000000000
     30709      2232  MEOH      LP1A           14.1929941872        4.5461758956       -2.2140696195  MEOH      1540            0.0000000000
     30710      2232  MEOH      LP1B           14.2485385455        5.2008065409       -2.1836945933  MEOH      1540            0.0000000000
     30711      2233  MEOH      C1             -6.8629243622      -20.3538750215      -23.3472602774  MEOH      1541            0.0000000000
     30712      2233  MEOH      DC1            -6.8556354177      -20.3583753001      -23.3521499376  MEOH      1541            0.0000000000
     30713      2233  MEOH      O1             -6.4088852504      -19.7092911950      -22.1778177310  MEOH      1541            0.0000000000
     30714      2233  MEOH      DO1            -6.4045067247      -19.7253011766      -22.1770820087  MEOH      1541            0.0000000000
     30715      2233  MEOH      HO1            -5.5817048102      -19.2513833605      -22.3945962689  MEOH      1541            0.0000000000
     30716      2233  MEOH      HO2            -7.1612541573      -19.1660226352      -21.8955053139  MEOH      1541            0.0000000000
     30717      2233  MEOH      H1A            -7.8190307136      -20.8559239128      -23.0862458034  MEOH      1541            0.0000000000
     30718      2233  MEOH      H1B            -6.1469414452      -21.1354097284      -23.6802662318  MEOH      1541            0.0000000000
     30719      2233  MEOH      H1C            -7.0233147519      -19.6085970426      -24.1554413570  MEOH      1541            0.0000000000
     30720      2233  MEOH      LP1A           -6.5453172251      -19.3876001609      -22.1577878815  MEOH      1541            0.0000000000
     30721      2233  MEOH      LP1B           -6.2044766185      -19.9255752657      -21.9935941929  MEOH      1541            0.0000000000
     30722      2234  MEOH      C1             19.6919420950       -8.8268368644       -3.3282949982  MEOH      1542            0.0000000000
     30723      2234  MEOH      DC1            19.6863431979       -8.8355350167       -3.3211155091  MEOH      1542            0.0000000000
     30724      2234  MEOH      O1             18.3651205374       -9.2060750901       -2.9640236676  MEOH      1542            0.0000000000
     30725      2234  MEOH      DO1            18.3633553249       -9.2135874489       -2.9636724362  MEOH      1542            0.0000000000
     30726      2234  MEOH      HO1            17.7807230431       -8.9362552867       -3.6896798137  MEOH      1542            0.0000000000
     30727      2234  MEOH      HO2            18.4142319282      -10.1282504262       -2.6672397035  MEOH      1542            0.0000000000
     30728      2234  MEOH      H1A            20.3683028449       -8.9155909825       -2.4513800405  MEOH      1542            0.0000000000
     30729      2234  MEOH      H1B            19.6877904313       -7.7698141799       -3.6703575775  MEOH      1542            0.0000000000
     30730      2234  MEOH      H1C            20.0705087401       -9.4733622239       -4.1486688494  MEOH      1542            0.0000000000
     30731      2234  MEOH      LP1A           18.2997875118       -9.5323214312       -3.0726280903  MEOH      1542            0.0000000000
     30732      2234  MEOH      LP1B           18.2118230455       -8.9477301144       -2.7844192342  MEOH      1542            0.0000000000
     30733      2235  MEOH      C1            -14.5503736394      -20.5452351587      -13.4624131201  MEOH      1543            0.0000000000
     30734      2235  MEOH      DC1           -14.5375893492      -20.5584875579      -13.4546759721  MEOH      1543            0.0000000000
     30735      2235  MEOH      O1            -15.6990276947      -19.9869207963      -14.0993710334  MEOH      1543            0.0000000000
     30736      2235  MEOH      DO1           -15.6881923499      -20.0025612910      -14.0973839062  MEOH      1543            0.0000000000
     30737      2235  MEOH      HO1           -15.8169137542      -20.3979403663      -14.9700407703  MEOH      1543            0.0000000000
     30738      2235  MEOH      HO2           -16.4125615862      -20.0099719346      -13.4426838699  MEOH      1543            0.0000000000
     30739      2235  MEOH      H1A           -14.3841533989      -20.0149603186      -12.5003837930  MEOH      1543            0.0000000000
     30740      2235  MEOH      H1B           -13.6560035446      -20.3998717199      -14.1052914945  MEOH      1543            0.0000000000
     30741      2235  MEOH      H1C           -14.7096209655      -21.6275877172      -13.2688305029  MEOH      1543            0.0000000000
     30742      2235  MEOH      LP1A          -15.9846506605      -20.1697167759      -14.0127387576  MEOH      1543            0.0000000000
     30743      2235  MEOH      LP1B          -15.6078752294      -19.7037232961      -14.2837358999  MEOH      1543            0.0000000000
     30744      2236  MEOH      C1             12.3902423957       15.6456013282       26.2371523856  MEOH      1544            0.0000000000
     30745      2236  MEOH      DC1            12.3910979211       15.6494532994       26.2387443587  MEOH      1544            0.0000000000
     30746      2236  MEOH      O1             12.8585851848       14.3285461738       26.5115541254  MEOH      1544            0.0000000000
     30747      2236  MEOH      DO1            12.8574791349       14.3311403409       26.5114350367  MEOH      1544            0.0000000000
     30748      2236  MEOH      HO1            12.1135850800       13.8332306519       26.8864372781  MEOH      1544            0.0000000000
     30749      2236  MEOH      HO2            13.2843275890       14.0223046800       25.6955519485  MEOH      1544            0.0000000000
     30750      2236  MEOH      H1A            13.2392512777       16.2811372672       25.9060950058  MEOH      1544            0.0000000000
     30751      2236  MEOH      H1B            11.9615420000       16.0957993060       27.1579448447  MEOH      1544            0.0000000000
     30752      2236  MEOH      H1C            11.6251816520       15.6153347407       25.4321138819  MEOH      1544            0.0000000000
     30753      2236  MEOH      LP1A           12.8140390824       14.1246870637       26.2305610508  MEOH      1544            0.0000000000
     30754      2236  MEOH      LP1B           12.9922296938       14.3139212926       26.8347030974  MEOH      1544            0.0000000000
     30755      2237  MEOH      C1             -7.3067748099        4.5501793201       17.4817502623  MEOH      1545            0.0000000000
     30756      2237  MEOH      DC1            -7.2920240414        4.5588072997       17.4739399068  MEOH      1545            0.0000000000
     30757      2237  MEOH      O1             -8.2625051263        3.8475337253       18.2728302385  MEOH      1545            0.0000000000
     30758      2237  MEOH      DO1            -8.2473323063        3.8716649764       18.2849726478  MEOH      1545            0.0000000000
     30759      2237  MEOH      HO1            -9.0955929480        3.7858366351       17.7798209583  MEOH      1545            0.0000000000
     30760      2237  MEOH      HO2            -7.8189994522        3.0240918650       18.5300193155  MEOH      1545            0.0000000000
     30761      2237  MEOH      H1A            -6.3235848469        4.5411405598       17.9990285238  MEOH      1545            0.0000000000
     30762      2237  MEOH      H1B            -7.6304991405        5.6047148090       17.3495441312  MEOH      1545            0.0000000000
     30763      2237  MEOH      H1C            -7.2087835207        4.0590749691       16.4900168185  MEOH      1545            0.0000000000
     30764      2237  MEOH      LP1A           -8.2394890578        3.5037939764       18.2110787554  MEOH      1545            0.0000000000
     30765      2237  MEOH      LP1B           -8.4382210945        4.0721168915       18.4757743193  MEOH      1545            0.0000000000
     30766      2238  MEOH      C1             -7.8243386355        3.0742125940       21.1457396501  MEOH      1546            0.0000000000
     30767      2238  MEOH      DC1            -7.8103734772        3.0783695957       21.1522902232  MEOH      1546            0.0000000000
     30768      2238  MEOH      O1             -7.9685765400        4.4888450060       21.3006922329  MEOH      1546            0.0000000000
     30769      2238  MEOH      DO1            -7.9674542094        4.4971272190       21.3023571559  MEOH      1546            0.0000000000
     30770      2238  MEOH      HO1            -8.1379297421        4.8351217879       20.4105732053  MEOH      1546            0.0000000000
     30771      2238  MEOH      HO2            -8.6192455242        4.6108541169       22.0096658929  MEOH      1546            0.0000000000
     30772      2238  MEOH      H1A            -7.6394429535        2.5846025359       22.1257481081  MEOH      1546            0.0000000000
     30773      2238  MEOH      H1B            -6.9747348403        2.8611174138       20.4623035985  MEOH      1546            0.0000000000
     30774      2238  MEOH      H1C            -8.7543586594        2.6484148096       20.7120577362  MEOH      1546            0.0000000000
     30775      2238  MEOH      LP1A           -8.3030452703        4.5686284393       21.3660012842  MEOH      1546            0.0000000000
     30776      2238  MEOH      LP1B           -7.6564938572        4.6447809472       21.2726141031  MEOH      1546            0.0000000000
     30777      2239  MEOH      C1            -18.4616454338        4.5955775353      -16.6687926232  MEOH      1547            0.0000000000
     30778      2239  MEOH      DC1           -18.4655953971        4.6012338252      -16.6661255915  MEOH      1547            0.0000000000
     30779      2239  MEOH      O1            -19.7827980540        4.4817081123      -16.1391399035  MEOH      1547            0.0000000000
     30780      2239  MEOH      DO1           -19.7792035462        4.4820354371      -16.1358179403  MEOH      1547            0.0000000000
     30781      2239  MEOH      HO1           -20.3614706570        5.0749692201      -16.6432026755  MEOH      1547            0.0000000000
     30782      2239  MEOH      HO2           -19.9725054929        3.5309658145      -16.1075144279  MEOH      1547            0.0000000000
     30783      2239  MEOH      H1A           -17.7574800452        4.0108996427      -16.0390118127  MEOH      1547            0.0000000000
     30784      2239  MEOH      H1B           -18.1403020691        5.6590831157      -16.6727070792  MEOH      1547            0.0000000000
     30785      2239  MEOH      H1C           -18.4275763513        4.1825875568      -17.6996173296  MEOH      1547            0.0000000000
     30786      2239  MEOH      LP1A          -19.9558309206        4.2254453426      -16.3031186215  MEOH      1547            0.0000000000
     30787      2239  MEOH      LP1B          -19.8275429082        4.7111936269      -15.8786897228  MEOH      1547            0.0000000000
     30788      2240  MEOH      C1             10.4408735981      -15.6684793885       13.7370593825  MEOH      1548            0.0000000000
     30789      2240  MEOH      DC1            10.4415342611      -15.6772898672       13.7257649380  MEOH      1548            0.0000000000
     30790      2240  MEOH      O1             10.3960685808      -15.2883143914       12.3582133510  MEOH      1548            0.0000000000
     30791      2240  MEOH      DO1            10.3914849722      -15.2905240070       12.3460043939  MEOH      1548            0.0000000000
     30792      2240  MEOH      HO1            10.4189358252      -16.0994841613       11.8268183053  MEOH      1548            0.0000000000
     30793      2240  MEOH      HO2             9.6763760340      -14.6429078551       12.2782568573  MEOH      1548            0.0000000000
     30794      2240  MEOH      H1A            10.5608737556      -14.7705328551       14.3801868856  MEOH      1548            0.0000000000
     30795      2240  MEOH      H1B            11.3019758455      -16.3462798012       13.9198448366  MEOH      1548            0.0000000000
     30796      2240  MEOH      H1C             9.4966732068      -16.1850086746       14.0127478273  MEOH      1548            0.0000000000
     30797      2240  MEOH      LP1A           10.0636388233      -15.2647500624       12.2512779560  MEOH      1548            0.0000000000
     30798      2240  MEOH      LP1B           10.7206029243      -15.2372178982       12.2375211461  MEOH      1548            0.0000000000
     30799      2241  MEOH      C1              8.8647082888       19.7894120442      -11.4177274623  MEOH      1549            0.0000000000
     30800      2241  MEOH      DC1             8.8693769958       19.7838206062      -11.4287710884  MEOH      1549            0.0000000000
     30801      2241  MEOH      O1              8.9763146436       20.5595067651      -10.2241259222  MEOH      1549            0.0000000000
     30802      2241  MEOH      DO1             8.9724727215       20.5598390494      -10.2356898550  MEOH      1549            0.0000000000
     30803      2241  MEOH      HO1             9.3014005182       19.9791964128       -9.5181095844  MEOH      1549            0.0000000000
     30804      2241  MEOH      HO2             9.4815787026       21.3520029373      -10.4640385090  MEOH      1549            0.0000000000
     30805      2241  MEOH      H1A             8.4134816132       20.4146547418      -12.2175943623  MEOH      1549            0.0000000000
     30806      2241  MEOH      H1B             8.2149331576       18.9043392570      -11.2481413757  MEOH      1549            0.0000000000
     30807      2241  MEOH      H1C             9.8694411285       19.4433867600      -11.7419178747  MEOH      1549            0.0000000000
     30808      2241  MEOH      LP1A            9.2935034168       20.7062985697      -10.2055935646  MEOH      1549            0.0000000000
     30809      2241  MEOH      LP1B            8.6741244095       20.5513849874      -10.0477311969  MEOH      1549            0.0000000000
     30810      2242  MEOH      C1             28.6301892014        9.4631264114       -5.2844114099  MEOH      1550            0.0000000000
     30811      2242  MEOH      DC1            28.6236128904        9.4715679157       -5.2802928693  MEOH      1550            0.0000000000
     30812      2242  MEOH      O1             27.6934963470        9.7066209662       -4.2358885625  MEOH      1550            0.0000000000
     30813      2242  MEOH      DO1            27.6934019803        9.7143323619       -4.2306572025  MEOH      1550            0.0000000000
     30814      2242  MEOH      HO1            27.6376609575       10.6654694676       -4.1002715964  MEOH      1550            0.0000000000
     30815      2242  MEOH      HO2            26.9001039827        9.2013722384       -4.4728532840  MEOH      1550            0.0000000000
     30816      2242  MEOH      H1A            28.7515875594        8.3720599880       -5.4551670840  MEOH      1550            0.0000000000
     30817      2242  MEOH      H1B            29.6181316761        9.8935152466       -5.0141224575  MEOH      1550            0.0000000000
     30818      2242  MEOH      H1C            28.2728196519        9.9375006899       -6.2233347556  MEOH      1550            0.0000000000
     30819      2242  MEOH      LP1A           27.3711172229        9.7385102521       -4.3683829918  MEOH      1550            0.0000000000
     30820      2242  MEOH      LP1B           27.8569575194        9.7042905363       -3.9264131771  MEOH      1550            0.0000000000
     30821      2243  MEOH      C1             -4.5256517411       14.3012843267      -14.3231359378  MEOH      1551            0.0000000000
     30822      2243  MEOH      DC1            -4.5244608252       14.3069258751      -14.3293070768  MEOH      1551            0.0000000000
     30823      2243  MEOH      O1             -5.7649417555       13.8372301249      -14.8462637817  MEOH      1551            0.0000000000
     30824      2243  MEOH      DO1            -5.7640544193       13.8493578255      -14.8485286737  MEOH      1551            0.0000000000
     30825      2243  MEOH      HO1            -6.3356744961       14.5921940840      -15.0588515516  MEOH      1551            0.0000000000
     30826      2243  MEOH      HO2            -5.5502932238       13.1689741171      -15.5157859366  MEOH      1551            0.0000000000
     30827      2243  MEOH      H1A            -3.9452719394       13.4263130197      -13.9599479731  MEOH      1551            0.0000000000
     30828      2243  MEOH      H1B            -4.6957061091       15.0001751083      -13.4764044636  MEOH      1551            0.0000000000
     30829      2243  MEOH      H1C            -3.9387468586       14.8094646044      -15.1178789560  MEOH      1551            0.0000000000
     30830      2243  MEOH      LP1A           -5.7424032062       13.8016591496      -15.1937212892  MEOH      1551            0.0000000000
     30831      2243  MEOH      LP1B           -5.9924146847       13.7838763997      -14.5856693718  MEOH      1551            0.0000000000
     30832      2244  MEOH      C1              8.4765410609      -28.0082950920       -6.8373673980  MEOH      1552            0.0000000000
     30833      2244  MEOH      DC1             8.5061884112      -27.9921965154       -6.8556266752  MEOH      1552            0.0000000000
     30834      2244  MEOH      O1              7.8567346792      -28.3810434139       -5.6077441188  MEOH      1552            0.0000000000
     30835      2244  MEOH      DO1             7.8845849027      -28.3711298864       -5.6301100174  MEOH      1552            0.0000000000
     30836      2244  MEOH      HO1             7.3613492689      -29.2102101041       -5.6970519889  MEOH      1552            0.0000000000
     30837      2244  MEOH      HO2             8.5043148690      -28.2336265649       -4.9007729946  MEOH      1552            0.0000000000
     30838      2244  MEOH      H1A             8.7586881838      -26.9345907402       -6.7940895934  MEOH      1552            0.0000000000
     30839      2244  MEOH      H1B             7.7661250889      -28.1518418772       -7.6794033045  MEOH      1552            0.0000000000
     30840      2244  MEOH      H1C             9.3788771633      -28.6344798870       -7.0047088477  MEOH      1552            0.0000000000
     30841      2244  MEOH      LP1A            8.0757392894      -28.5773166955       -5.4179711501  MEOH      1552            0.0000000000
     30842      2244  MEOH      LP1B            7.5380491510      -28.2379620087       -5.5861282537  MEOH      1552            0.0000000000
     30843      2245  MEOH      C1             -4.8978968274        5.2450488921      -25.7675951092  MEOH      1553            0.0000000000
     30844      2245  MEOH      DC1            -4.8792889324        5.2408240191      -25.7630492091  MEOH      1553            0.0000000000
     30845      2245  MEOH      O1             -5.5032319076        3.9630106416      -25.6136632263  MEOH      1553            0.0000000000
     30846      2245  MEOH      DO1            -5.4913505634        3.9640189033      -25.6038127540  MEOH      1553            0.0000000000
     30847      2245  MEOH      HO1            -6.4566807289        4.0775981625      -25.7504296152  MEOH      1553            0.0000000000
     30848      2245  MEOH      HO2            -5.0057773419        3.3612467338      -26.1892665236  MEOH      1553            0.0000000000
     30849      2245  MEOH      H1A            -3.7976514914        5.1780960249      -25.6286760168  MEOH      1553            0.0000000000
     30850      2245  MEOH      H1B            -5.3033584186        5.9364460487      -24.9982500161  MEOH      1553            0.0000000000
     30851      2245  MEOH      H1C            -5.1129806434        5.6444688385      -26.7817566641  MEOH      1553            0.0000000000
     30852      2245  MEOH      LP1A           -5.5096469392        3.7959612282      -25.9211584959  MEOH      1553            0.0000000000
     30853      2245  MEOH      LP1B           -5.5881373306        3.9102148228      -25.2782475578  MEOH      1553            0.0000000000
     30854      2246  MEOH      C1             12.2050941784       19.6478551416       -1.6680256098  MEOH      1554            0.0000000000
     30855      2246  MEOH      DC1            12.2013208224       19.6539227949       -1.6694849443  MEOH      1554            0.0000000000
     30856      2246  MEOH      O1             12.4629931297       20.7136265367       -0.7499612220  MEOH      1554            0.0000000000
     30857      2246  MEOH      DO1            12.4632870946       20.7152962479       -0.7487879665  MEOH      1554            0.0000000000
     30858      2246  MEOH      HO1            13.2929298585       21.1352699262       -1.0225816154  MEOH      1554            0.0000000000
     30859      2246  MEOH      HO2            11.6439547465       21.2314209160       -0.7056316886  MEOH      1554            0.0000000000
     30860      2246  MEOH      H1A            11.3024096058       19.0875862752       -1.3430942916  MEOH      1554            0.0000000000
     30861      2246  MEOH      H1B            13.0678107034       18.9484352192       -1.6972312693  MEOH      1554            0.0000000000
     30862      2246  MEOH      H1C            12.0288413675       20.0584950565       -2.6851936426  MEOH      1554            0.0000000000
     30863      2246  MEOH      LP1A           12.3114848382       21.0082210272       -0.8629183987  MEOH      1554            0.0000000000
     30864      2246  MEOH      LP1B           12.6480327713       20.5948936790       -0.4776326713  MEOH      1554            0.0000000000
     30865      2247  MEOH      C1            -24.7933831542        6.6256567657      -33.9960818287  MEOH      1555            0.0000000000
     30866      2247  MEOH      DC1           -24.8191494600        6.6309867437      -33.9839267052  MEOH      1555            0.0000000000
     30867      2247  MEOH      O1            -24.9922917230        6.2159833353      -32.6398568950  MEOH      1555            0.0000000000
     30868      2247  MEOH      DO1           -25.0153480544        6.2235818087      -32.6246852231  MEOH      1555            0.0000000000
     30869      2247  MEOH      HO1           -24.9235327594        7.0064039057      -32.0818178931  MEOH      1555            0.0000000000
     30870      2247  MEOH      HO2           -25.7427605037        5.6015892029      -32.6251443428  MEOH      1555            0.0000000000
     30871      2247  MEOH      H1A           -24.6110956333        5.7349740917      -34.6346557356  MEOH      1555            0.0000000000
     30872      2247  MEOH      H1B           -23.9073740187        7.2918766677      -34.0699726549  MEOH      1555            0.0000000000
     30873      2247  MEOH      H1C           -25.6889531142        7.1632207508      -34.3746322354  MEOH      1555            0.0000000000
     30874      2247  MEOH      LP1A          -25.3329260771        6.2270507920      -32.5601966904  MEOH      1555            0.0000000000
     30875      2247  MEOH      LP1B          -24.6863037532        6.1255028122      -32.4960353484  MEOH      1555            0.0000000000
     30876      2248  MEOH      C1              0.3645997856       36.6274546437        0.4432821694  MEOH      1556            0.0000000000
     30877      2248  MEOH      DC1             0.3468731544       36.6283768405        0.4202299775  MEOH      1556            0.0000000000
     30878      2248  MEOH      O1              0.2228336048       36.9560797194       -0.9374620660  MEOH      1556            0.0000000000
     30879      2248  MEOH      DO1             0.2113019321       36.9649172152       -0.9544638210  MEOH      1556            0.0000000000
     30880      2248  MEOH      HO1             0.7991697652       36.3332311439       -1.4073517170  MEOH      1556            0.0000000000
     30881      2248  MEOH      HO2            -0.7327690899       36.9857048341       -1.1013090749  MEOH      1556            0.0000000000
     30882      2248  MEOH      H1A            -0.3001035243       37.2954879191        1.0316885369  MEOH      1556            0.0000000000
     30883      2248  MEOH      H1B             1.4144702698       36.7726567468        0.7764627746  MEOH      1556            0.0000000000
     30884      2248  MEOH      H1C             0.0572827143       35.5781976998        0.6406069899  MEOH      1556            0.0000000000
     30885      2248  MEOH      LP1A           -0.0425746864       36.7754547283       -1.0768645464  MEOH      1556            0.0000000000
     30886      2248  MEOH      LP1B            0.4570693774       37.2002196639       -1.0270683736  MEOH      1556            0.0000000000
     30887      2249  MEOH      C1            -27.1785682324       -6.2717213401      -28.3566137491  MEOH      1557            0.0000000000
     30888      2249  MEOH      DC1           -27.1800884041       -6.2626892569      -28.3552755992  MEOH      1557            0.0000000000
     30889      2249  MEOH      O1            -25.8677010200       -6.4658809917      -27.8191928121  MEOH      1557            0.0000000000
     30890      2249  MEOH      DO1           -25.8628701734       -6.4649246791      -27.8220587172  MEOH      1557            0.0000000000
     30891      2249  MEOH      HO1           -25.5542675202       -5.6152362805      -27.4741377201  MEOH      1557            0.0000000000
     30892      2249  MEOH      HO2           -25.9299567719       -7.2416088546      -27.2401673332  MEOH      1557            0.0000000000
     30893      2249  MEOH      H1A           -27.5358330665       -7.2210713583      -28.8098436932  MEOH      1557            0.0000000000
     30894      2249  MEOH      H1B           -27.1543335066       -5.4890810413      -29.1447811430  MEOH      1557            0.0000000000
     30895      2249  MEOH      H1C           -27.8791656541       -5.9763113537      -27.5465414100  MEOH      1557            0.0000000000
     30896      2249  MEOH      LP1A          -25.8889345349       -6.5584916110      -27.4823361497  MEOH      1557            0.0000000000
     30897      2249  MEOH      LP1B          -25.6274597951       -6.4168788813      -28.0689585964  MEOH      1557            0.0000000000
     30898      2250  MEOH      C1             18.1090213678       31.3721153114      -17.9110001652  MEOH      1558            0.0000000000
     30899      2250  MEOH      DC1            18.1099536131       31.3798429035      -17.8954724049  MEOH      1558            0.0000000000
     30900      2250  MEOH      O1             19.0812101316       31.6661286831      -18.9189783860  MEOH      1558            0.0000000000
     30901      2250  MEOH      DO1            19.0810030205       31.6791661898      -18.9028191813  MEOH      1558            0.0000000000
     30902      2250  MEOH      HO1            19.9572979118       31.4100912485      -18.5906263897  MEOH      1558            0.0000000000
     30903      2250  MEOH      HO2            18.7563555629       31.2150557927      -19.7139015008  MEOH      1558            0.0000000000
     30904      2250  MEOH      H1A            17.0915640792       31.5408368787      -18.3240796965  MEOH      1558            0.0000000000
     30905      2250  MEOH      H1B            18.2403640383       32.0396540312      -17.0326709783  MEOH      1558            0.0000000000
     30906      2250  MEOH      H1C            18.1901702704       30.3093345699      -17.5975787992  MEOH      1558            0.0000000000
     30907      2250  MEOH      LP1A           19.1179780426       31.3919721062      -19.1334225327  MEOH      1558            0.0000000000
     30908      2250  MEOH      LP1B           19.1987958724       31.9934758084      -18.8800238855  MEOH      1558            0.0000000000
     30909      2251  MEOH      C1            -28.9110740013       26.2999188493       -9.1571380147  MEOH      1559            0.0000000000
     30910      2251  MEOH      DC1           -28.9102743586       26.3023346788       -9.1455262372  MEOH      1559            0.0000000000
     30911      2251  MEOH      O1            -29.3193676928       27.0401654040       -8.0036155631  MEOH      1559            0.0000000000
     30912      2251  MEOH      DO1           -29.3184063555       27.0504844840       -8.0036511091  MEOH      1559            0.0000000000
     30913      2251  MEOH      HO1           -28.5227759766       27.2798563962       -7.5047269325  MEOH      1559            0.0000000000
     30914      2251  MEOH      HO2           -29.9405496075       27.7152592701       -8.3187049195  MEOH      1559            0.0000000000
     30915      2251  MEOH      H1A           -29.8036437004       25.8867954575       -9.6738288273  MEOH      1559            0.0000000000
     30916      2251  MEOH      H1B           -28.2505948940       25.4577529285       -8.8590693805  MEOH      1559            0.0000000000
     30917      2251  MEOH      H1C           -28.3575831142       26.9545557230       -9.8638341325  MEOH      1559            0.0000000000
     30918      2251  MEOH      LP1A          -29.3359020637       27.3813303453       -8.0799902800  MEOH      1559            0.0000000000
     30919      2251  MEOH      LP1B          -29.3821569320       26.8218664423       -7.7373392503  MEOH      1559            0.0000000000
     30920      2252  MEOH      C1             13.0959173868       30.0621180584      -24.7275402333  MEOH      1560            0.0000000000
     30921      2252  MEOH      DC1            13.0894505737       30.0588962177      -24.7208789142  MEOH      1560            0.0000000000
     30922      2252  MEOH      O1             13.1729118427       29.0956306650      -23.6801805378  MEOH      1560            0.0000000000
     30923      2252  MEOH      DO1            13.1749970200       29.0992774344      -23.6762507444  MEOH      1560            0.0000000000
     30924      2252  MEOH      HO1            12.4973955252       28.4217305019      -23.8546404899  MEOH      1560            0.0000000000
     30925      2252  MEOH      HO2            14.1069860109       28.8377209281      -23.6367292232  MEOH      1560            0.0000000000
     30926      2252  MEOH      H1A            13.8104627941       30.8903581943      -24.5332102606  MEOH      1560            0.0000000000
     30927      2252  MEOH      H1B            12.0711968590       30.4850680372      -24.8009034185  MEOH      1560            0.0000000000
     30928      2252  MEOH      H1C            13.3741698202       29.5928392802      -25.6953594375  MEOH      1560            0.0000000000
     30929      2252  MEOH      LP1A           13.4014580674       28.8446454841      -23.7654627877  MEOH      1560            0.0000000000
     30930      2252  MEOH      LP1B           12.9658598994       29.1904004972      -23.4143832999  MEOH      1560            0.0000000000
     30931      2253  MEOH      C1            -36.5169391030       20.7168672664       34.8720860134  MEOH      1561            0.0000000000
     30932      2253  MEOH      DC1           -36.5045925830       20.7133655713       34.8577719584  MEOH      1561            0.0000000000
     30933      2253  MEOH      O1            -36.8280143708       20.1847801300       33.5792572733  MEOH      1561            0.0000000000
     30934      2253  MEOH      DO1           -36.8056716500       20.1813087398       33.5596664124  MEOH      1561            0.0000000000
     30935      2253  MEOH      HO1           -37.6202950887       19.6472957543       33.7351476520  MEOH      1561            0.0000000000
     30936      2253  MEOH      HO2           -36.8799919574       20.9529488982       32.9892444984  MEOH      1561            0.0000000000
     30937      2253  MEOH      H1A           -35.6533076990       21.4143978183       34.8283489901  MEOH      1561            0.0000000000
     30938      2253  MEOH      H1B           -36.2810391804       19.8816708103       35.5657135131  MEOH      1561            0.0000000000
     30939      2253  MEOH      H1C           -37.4006337806       21.2622596935       35.2669933674  MEOH      1561            0.0000000000
     30940      2253  MEOH      LP1A          -37.0390611051       20.4045133857       33.4069883780  MEOH      1561            0.0000000000
     30941      2253  MEOH      LP1B          -36.6599244349       19.8816060854       33.5309740243  MEOH      1561            0.0000000000
     30942      2254  MEOH      C1            -16.2459332240       15.7149862001      -15.0169285868  MEOH      1562            0.0000000000
     30943      2254  MEOH      DC1           -16.2451647200       15.7286995802      -15.0142816870  MEOH      1562            0.0000000000
     30944      2254  MEOH      O1            -17.3572096235       16.4141181316      -14.4618061301  MEOH      1562            0.0000000000
     30945      2254  MEOH      DO1           -17.3514601492       16.4203738358      -14.4546969049  MEOH      1562            0.0000000000
     30946      2254  MEOH      HO1           -18.1570173378       16.0082757680      -14.8312646475  MEOH      1562            0.0000000000
     30947      2254  MEOH      HO2           -17.2150767620       16.4241133209      -13.5023279664  MEOH      1562            0.0000000000
     30948      2254  MEOH      H1A           -15.3024918993       16.2097307603      -14.7015442378  MEOH      1562            0.0000000000
     30949      2254  MEOH      H1B           -16.2983900323       15.7175245625      -16.1266865964  MEOH      1562            0.0000000000
     30950      2254  MEOH      H1C           -16.2438330969       14.6643155031      -14.6558085544  MEOH      1562            0.0000000000
     30951      2254  MEOH      LP1A          -17.4551424486       16.2638721197      -14.1612478201  MEOH      1562            0.0000000000
     30952      2254  MEOH      LP1B          -17.4387405917       16.6885080830      -14.6632083540  MEOH      1562            0.0000000000
     30953      2255  MEOH      C1            -19.0713568621      -33.6058538384       34.3343209560  MEOH      1563            0.0000000000
     30954      2255  MEOH      DC1           -19.0713590139      -33.6154088857       34.3388300212  MEOH      1563            0.0000000000
     30955      2255  MEOH      O1            -17.8997264858      -33.2974854877       33.5796491493  MEOH      1563            0.0000000000
     30956      2255  MEOH      DO1           -17.9005544338      -33.2997670959       33.5914236576  MEOH      1563            0.0000000000
     30957      2255  MEOH      HO1           -17.9682770864      -32.3907166010       33.2420532351  MEOH      1563            0.0000000000
     30958      2255  MEOH      HO2           -17.1426636302      -33.6004994174       34.1049475328  MEOH      1563            0.0000000000
     30959      2255  MEOH      H1A           -19.1037948766      -34.6919419063       34.5660136109  MEOH      1563            0.0000000000
     30960      2255  MEOH      H1B           -19.9742379922      -33.3372229669       33.7452843525  MEOH      1563            0.0000000000
     30961      2255  MEOH      H1C           -19.0620914050      -33.0352856238       35.2875717434  MEOH      1563            0.0000000000
     30962      2255  MEOH      LP1A          -17.6535264024      -33.1644215967       33.7898383970  MEOH      1563            0.0000000000
     30963      2255  MEOH      LP1B          -17.9452754525      -33.3893247551       33.2449988235  MEOH      1563            0.0000000000
     30964      2256  MEOH      C1            -31.5264228682       36.6273472194       24.9543931796  MEOH      1564            0.0000000000
     30965      2256  MEOH      DC1           -31.5300525401       36.6312206002       24.9482826326  MEOH      1564            0.0000000000
     30966      2256  MEOH      O1            -32.8708148169       36.7969509783       25.3925606738  MEOH      1564            0.0000000000
     30967      2256  MEOH      DO1           -32.8712999087       36.8004358615       25.3823498579  MEOH      1564            0.0000000000
     30968      2256  MEOH      HO1           -32.8606231426       36.7799508639       26.3623581403  MEOH      1564            0.0000000000
     30969      2256  MEOH      HO2           -33.2158462694       37.5595935300       24.9024284100  MEOH      1564            0.0000000000
     30970      2256  MEOH      H1A           -31.5083939053       36.4724317395       23.8543944748  MEOH      1564            0.0000000000
     30971      2256  MEOH      H1B           -31.0775559516       35.7477743668       25.4635013109  MEOH      1564            0.0000000000
     30972      2256  MEOH      H1C           -30.9166464698       37.5211360707       25.2066534297  MEOH      1564            0.0000000000
     30973      2256  MEOH      LP1A          -32.9427167945       37.1375211360       25.4291949925  MEOH      1564            0.0000000000
     30974      2256  MEOH      LP1B          -33.0284016199       36.4855269972       25.4186662961  MEOH      1564            0.0000000000
     30975      2257  MEOH      C1             -4.3067477992       -8.9057220910       12.4966976510  MEOH      1565            0.0000000000
     30976      2257  MEOH      DC1            -4.2880834463       -8.9154598970       12.4950869524  MEOH      1565            0.0000000000
     30977      2257  MEOH      O1             -3.8791833857       -9.7188628000       13.5879620663  MEOH      1565            0.0000000000
     30978      2257  MEOH      DO1            -3.8679390575       -9.7281628855       13.5844959767  MEOH      1565            0.0000000000
     30979      2257  MEOH      HO1            -3.0134564987       -9.3906274097       13.8772344056  MEOH      1565            0.0000000000
     30980      2257  MEOH      HO2            -4.6236127157       -9.7365378875       14.2095829830  MEOH      1565            0.0000000000
     30981      2257  MEOH      H1A            -5.2768448196       -9.2910668491       12.1162476684  MEOH      1565            0.0000000000
     30982      2257  MEOH      H1B            -3.5627694959       -8.9167840680       11.6716552783  MEOH      1565            0.0000000000
     30983      2257  MEOH      H1C            -4.4808979365       -7.8636844087       12.8404274872  MEOH      1565            0.0000000000
     30984      2257  MEOH      LP1A           -3.9961040691       -9.5854397802       13.8896702890  MEOH      1565            0.0000000000
     30985      2257  MEOH      LP1B           -3.7001599079       -9.9949137672       13.4686035398  MEOH      1565            0.0000000000
     30986      2258  MEOH      C1             29.4225160288       31.4845468243       -5.2626795109  MEOH      1566            0.0000000000
     30987      2258  MEOH      DC1            29.4289639862       31.4879499110       -5.2629440384  MEOH      1566            0.0000000000
     30988      2258  MEOH      O1             29.4794922556       30.5055413232       -6.3004552198  MEOH      1566            0.0000000000
     30989      2258  MEOH      DO1            29.4840509197       30.5073802100       -6.3024396007  MEOH      1566            0.0000000000
     30990      2258  MEOH      HO1            30.1623222407       30.7816457371       -6.9316521495  MEOH      1566            0.0000000000
     30991      2258  MEOH      HO2            29.5269926247       29.6441679549       -5.8569694408  MEOH      1566            0.0000000000
     30992      2258  MEOH      H1A            28.6070445764       31.2331734868       -4.5512452159  MEOH      1566            0.0000000000
     30993      2258  MEOH      H1B            29.2262955735       32.4922485750       -5.6873625863  MEOH      1566            0.0000000000
     30994      2258  MEOH      H1C            30.3727549287       31.4902361353       -4.6870627407  MEOH      1566            0.0000000000
     30995      2258  MEOH      LP1A           29.7056635267       30.2527295144       -6.2142418481  MEOH      1566            0.0000000000
     30996      2258  MEOH      LP1B           29.2545337011       30.5882345584       -6.5555149729  MEOH      1566            0.0000000000
     30997      2259  MEOH      C1              9.7124739411       36.4339302683       31.0885141822  MEOH      1567            0.0000000000
     30998      2259  MEOH      DC1             9.7108571829       36.4415814879       31.1082337831  MEOH      1567            0.0000000000
     30999      2259  MEOH      O1             10.4651890125       35.9976135127       32.2196172008  MEOH      1567            0.0000000000
     31000      2259  MEOH      DO1            10.4550301495       36.0034111784       32.2329344186  MEOH      1567            0.0000000000
     31001      2259  MEOH      HO1            10.6446283044       35.0549885153       32.0776325015  MEOH      1567            0.0000000000
     31002      2259  MEOH      HO2            11.2240382114       36.6004515840       32.2600418682  MEOH      1567            0.0000000000
     31003      2259  MEOH      H1A             9.4775883965       37.5161514659       31.1776604682  MEOH      1567            0.0000000000
     31004      2259  MEOH      H1B             8.7705952318       35.8521647991       30.9950559698  MEOH      1567            0.0000000000
     31005      2259  MEOH      H1C            10.3231384609       36.2923945962       30.1712478642  MEOH      1567            0.0000000000
     31006      2259  MEOH      LP1A           10.8071758843       36.0429555099       32.1605487419  MEOH      1567            0.0000000000
     31007      2259  MEOH      LP1B           10.2490338242       35.8896666294       32.4728451710  MEOH      1567            0.0000000000
     31008      2260  MEOH      C1            -11.1714922667        7.6953595086       -2.1482588365  MEOH      1568            0.0000000000
     31009      2260  MEOH      DC1           -11.1876318414        7.7046733815       -2.1517049421  MEOH      1568            0.0000000000
     31010      2260  MEOH      O1            -10.4733600194        6.5743654612       -2.6752786557  MEOH      1568            0.0000000000
     31011      2260  MEOH      DO1           -10.4876388059        6.5868347579       -2.6709796381  MEOH      1568            0.0000000000
     31012      2260  MEOH      HO1           -10.0761581070        6.0629324320       -1.9530827695  MEOH      1568            0.0000000000
     31013      2260  MEOH      HO2           -11.0758990376        6.1539335421       -3.3085903743  MEOH      1568            0.0000000000
     31014      2260  MEOH      H1A           -11.4778710187        8.3648208648       -2.9802892168  MEOH      1568            0.0000000000
     31015      2260  MEOH      H1B           -10.5325799098        8.2694422175       -1.4436021517  MEOH      1568            0.0000000000
     31016      2260  MEOH      H1C           -12.0765780939        7.3336356694       -1.6150642080  MEOH      1568            0.0000000000
     31017      2260  MEOH      LP1A          -10.6897302240        6.3006177042       -2.7025934890  MEOH      1568            0.0000000000
     31018      2260  MEOH      LP1B          -10.1423971052        6.6625205730       -2.7473357559  MEOH      1568            0.0000000000
     31019      2261  MEOH      C1            -12.8168316946      -20.2106891878      -25.9680087586  MEOH      1569            0.0000000000
     31020      2261  MEOH      DC1           -12.8095787209      -20.2084761407      -25.9641076641  MEOH      1569            0.0000000000
     31021      2261  MEOH      O1            -12.0958066272      -19.2183808937      -26.7022354162  MEOH      1569            0.0000000000
     31022      2261  MEOH      DO1           -12.0931044464      -19.2176271698      -26.7023361291  MEOH      1569            0.0000000000
     31023      2261  MEOH      HO1           -12.2961542147      -18.3544723225      -26.3092687182  MEOH      1569            0.0000000000
     31024      2261  MEOH      HO2           -11.1831888586      -19.5384907949      -26.7767904948  MEOH      1569            0.0000000000
     31025      2261  MEOH      H1A           -12.6513897683      -21.2105388608      -26.4232566050  MEOH      1569            0.0000000000
     31026      2261  MEOH      H1B           -13.9065554566      -19.9951129675      -25.9867174786  MEOH      1569            0.0000000000
     31027      2261  MEOH      H1C           -12.4846927725      -20.2239272278      -24.9079005138  MEOH      1569            0.0000000000
     31028      2261  MEOH      LP1A          -11.7781233245      -19.1733129135      -26.5624277040  MEOH      1569            0.0000000000
     31029      2261  MEOH      LP1B          -12.2883855860      -19.1054414529      -26.9717869462  MEOH      1569            0.0000000000
     31030      2262  MEOH      C1            -12.9308269787        1.4494224168        5.9691897541  MEOH      1570            0.0000000000
     31031      2262  MEOH      DC1           -12.9286564999        1.4521534366        5.9503229758  MEOH      1570            0.0000000000
     31032      2262  MEOH      O1            -14.1822611382        0.8059486282        5.7241772838  MEOH      1570            0.0000000000
     31033      2262  MEOH      DO1           -14.1869026720        0.8040123902        5.6936729317  MEOH      1570            0.0000000000
     31034      2262  MEOH      HO1           -14.4166585858        0.4052003607        6.5758571904  MEOH      1570            0.0000000000
     31035      2262  MEOH      HO2           -14.7544563120        1.4858339708        5.3352703490  MEOH      1570            0.0000000000
     31036      2262  MEOH      H1A           -12.5227073129        1.8754423241        5.0277725369  MEOH      1570            0.0000000000
     31037      2262  MEOH      H1B           -12.2068177775        0.7299254069        6.4078875215  MEOH      1570            0.0000000000
     31038      2262  MEOH      H1C           -13.0837662674        2.2856374954        6.6845043122  MEOH      1570            0.0000000000
     31039      2262  MEOH      LP1A          -14.4452850732        1.0289483076        5.7840901590  MEOH      1570            0.0000000000
     31040      2262  MEOH      LP1B          -14.1287010620        0.4786676072        5.6122913975  MEOH      1570            0.0000000000
     31041      2263  MEOH      C1              2.8440832006      -13.5867783703      -16.9052406141  MEOH      1571            0.0000000000
     31042      2263  MEOH      DC1             2.8437151583      -13.5830789036      -16.9109939870  MEOH      1571            0.0000000000
     31043      2263  MEOH      O1              3.6094670201      -14.3987433814      -16.0115569404  MEOH      1571            0.0000000000
     31044      2263  MEOH      DO1             3.6021334128      -14.3960757571      -16.0095865614  MEOH      1571            0.0000000000
     31045      2263  MEOH      HO1             4.5350463680      -14.3778563067      -16.3009815444  MEOH      1571            0.0000000000
     31046      2263  MEOH      HO2             3.3689496758      -14.1096965652      -15.1174074310  MEOH      1571            0.0000000000
     31047      2263  MEOH      H1A             1.7649410072      -13.6916644333      -16.6628111583  MEOH      1571            0.0000000000
     31048      2263  MEOH      H1B             3.0104824302      -13.9096399671      -17.9551895108  MEOH      1571            0.0000000000
     31049      2263  MEOH      H1C             3.1374217270      -12.5208341128      -16.7955303105  MEOH      1571            0.0000000000
     31050      2263  MEOH      LP1A            3.7227992988      -14.2061727359      -15.7421643995  MEOH      1571            0.0000000000
     31051      2263  MEOH      LP1B            3.6148015407      -14.7296949950      -16.1253223673  MEOH      1571            0.0000000000
     31052      2264  MEOH      C1             28.0536759334       13.1051688653       -2.9053295286  MEOH      1572            0.0000000000
     31053      2264  MEOH      DC1            28.0446522814       13.1069874744       -2.9064305768  MEOH      1572            0.0000000000
     31054      2264  MEOH      O1             28.1130176405       14.5165611235       -3.1120656437  MEOH      1572            0.0000000000
     31055      2264  MEOH      DO1            28.1060528348       14.5179870327       -3.1121480706  MEOH      1572            0.0000000000
     31056      2264  MEOH      HO1            27.5160079364       14.9411260350       -2.4762794768  MEOH      1572            0.0000000000
     31057      2264  MEOH      HO2            29.0557321656       14.7448013598       -3.1218492361  MEOH      1572            0.0000000000
     31058      2264  MEOH      H1A            28.6769240657       12.5933080228       -3.6694507516  MEOH      1572            0.0000000000
     31059      2264  MEOH      H1B            27.0056781296       12.7480058505       -2.9972870480  MEOH      1572            0.0000000000
     31060      2264  MEOH      H1C            28.4449792637       12.8527974012       -1.8966118535  MEOH      1572            0.0000000000
     31061      2264  MEOH      LP1A           28.3680200479       14.6555416049       -2.9167244089  MEOH      1572            0.0000000000
     31062      2264  MEOH      LP1B           27.8755606325       14.6127027905       -3.3505419512  MEOH      1572            0.0000000000
     31063      2265  MEOH      C1             21.6589454171      -12.2022911931      -36.5169457914  MEOH      1573            0.0000000000
     31064      2265  MEOH      DC1            21.6642508552      -12.2195665818      -36.5202849303  MEOH      1573            0.0000000000
     31065      2265  MEOH      O1             20.8003583655      -11.1172080982      -36.8469321785  MEOH      1573            0.0000000000
     31066      2265  MEOH      DO1            20.7941933446      -11.1359739196      -36.8358102922  MEOH      1573            0.0000000000
     31067      2265  MEOH      HO1            19.8872821542      -11.4415668247      -36.8914658744  MEOH      1573            0.0000000000
     31068      2265  MEOH      HO2            21.0385277528      -10.3845187670      -36.2575751671  MEOH      1573            0.0000000000
     31069      2265  MEOH      H1A            22.7111053282      -11.8481719042      -36.5603053523  MEOH      1573            0.0000000000
     31070      2265  MEOH      H1B            21.5363721167      -13.0323802371      -37.2451277501  MEOH      1573            0.0000000000
     31071      2265  MEOH      H1C            21.4280159597      -12.5657681568      -35.4927987878  MEOH      1573            0.0000000000
     31072      2265  MEOH      LP1A           20.6934979533      -10.9561043380      -36.5551678374  MEOH      1573            0.0000000000
     31073      2265  MEOH      LP1B           20.7717632112      -11.0886314651      -37.1945896151  MEOH      1573            0.0000000000
     31074      2266  MEOH      C1             24.4671378732       -4.5794625135       10.4485913793  MEOH      1574            0.0000000000
     31075      2266  MEOH      DC1            24.4717679281       -4.5956349555       10.4321432264  MEOH      1574            0.0000000000
     31076      2266  MEOH      O1             23.3117140797       -3.7346389819       10.5198802776  MEOH      1574            0.0000000000
     31077      2266  MEOH      DO1            23.3171071840       -3.7566682800       10.5022393480  MEOH      1574            0.0000000000
     31078      2266  MEOH      HO1            23.5112010621       -2.8295471931       10.2336744099  MEOH      1574            0.0000000000
     31079      2266  MEOH      HO2            22.5416903047       -4.2428143114       10.2203452707  MEOH      1574            0.0000000000
     31080      2266  MEOH      H1A            24.3023912288       -5.4672411454       11.0959155994  MEOH      1574            0.0000000000
     31081      2266  MEOH      H1B            25.3630973384       -4.0495479549       10.8368801868  MEOH      1574            0.0000000000
     31082      2266  MEOH      H1C            24.6470587318       -4.9029019747        9.4010531225  MEOH      1574            0.0000000000
     31083      2266  MEOH      LP1A           23.1341090603       -3.7490560726       10.2186351871  MEOH      1574            0.0000000000
     31084      2266  MEOH      LP1B           23.2900734381       -3.5879229911       10.8369072492  MEOH      1574            0.0000000000
     31085      2267  MEOH      C1             -6.6179275424       13.9858855129       -1.0391048245  MEOH      1575            0.0000000000
     31086      2267  MEOH      DC1            -6.6138869499       13.9916664995       -1.0240065891  MEOH      1575            0.0000000000
     31087      2267  MEOH      O1             -6.5773776153       14.1011726470        0.3844952430  MEOH      1575            0.0000000000
     31088      2267  MEOH      DO1            -6.5589595110       14.1198993850        0.3987524949  MEOH      1575            0.0000000000
     31089      2267  MEOH      HO1            -7.4445804698       14.4426866514        0.6532467897  MEOH      1575            0.0000000000
     31090      2267  MEOH      HO2            -6.3181908152       13.2212993224        0.7000029878  MEOH      1575            0.0000000000
     31091      2267  MEOH      H1A            -5.7063590448       13.4702115721       -1.4098395827  MEOH      1575            0.0000000000
     31092      2267  MEOH      H1B            -6.6803083653       14.9941225205       -1.5015848463  MEOH      1575            0.0000000000
     31093      2267  MEOH      H1C            -7.5115929078       13.3997762407       -1.3426820575  MEOH      1575            0.0000000000
     31094      2267  MEOH      LP1A           -6.6810598473       13.8011332660        0.5318939020  MEOH      1575            0.0000000000
     31095      2267  MEOH      LP1B           -6.4561182035       14.4165895584        0.4756452678  MEOH      1575            0.0000000000
     31096      2268  MEOH      C1            -18.7354302721       21.8134403291      -12.2680559785  MEOH      1576            0.0000000000
     31097      2268  MEOH      DC1           -18.7384719129       21.8141708143      -12.2631853045  MEOH      1576            0.0000000000
     31098      2268  MEOH      O1            -18.0606893624       23.0265215957      -11.9360724770  MEOH      1576            0.0000000000
     31099      2268  MEOH      DO1           -18.0616687833       23.0171245971      -11.9306876565  MEOH      1576            0.0000000000
     31100      2268  MEOH      HO1           -17.7208708456       23.4256490124      -12.7522346434  MEOH      1576            0.0000000000
     31101      2268  MEOH      HO2           -18.6626102325       23.5198580025      -11.3570988543  MEOH      1576            0.0000000000
     31102      2268  MEOH      H1A           -19.0420214814       21.3194914553      -11.3213050391  MEOH      1576            0.0000000000
     31103      2268  MEOH      H1B           -18.0557416453       21.1289786552      -12.8192878602  MEOH      1576            0.0000000000
     31104      2268  MEOH      H1C           -19.6400994396       22.0202059301      -12.8789100407  MEOH      1576            0.0000000000
     31105      2268  MEOH      LP1A          -18.2867090388       23.2937465482      -11.9385077605  MEOH      1576            0.0000000000
     31106      2268  MEOH      LP1B          -17.7238992353       22.9610906261      -11.8668539933  MEOH      1576            0.0000000000
     31107      2269  MEOH      C1             -6.9708232293       -6.6760706103      -12.9480638625  MEOH      1577            0.0000000000
     31108      2269  MEOH      DC1            -6.9579747684       -6.6852393016      -12.9428262817  MEOH      1577            0.0000000000
     31109      2269  MEOH      O1             -8.3715253789       -6.4668768116      -13.0737070238  MEOH      1577            0.0000000000
     31110      2269  MEOH      DO1            -8.3658451306       -6.4871212069      -13.0782263421  MEOH      1577            0.0000000000
     31111      2269  MEOH      HO1            -8.5077306047       -5.5226225838      -13.2490127326  MEOH      1577            0.0000000000
     31112      2269  MEOH      HO2            -8.7039905151       -7.1597207332      -13.6655974136  MEOH      1577            0.0000000000
     31113      2269  MEOH      H1A            -6.7940435223       -7.6810367628      -12.5086176570  MEOH      1577            0.0000000000
     31114      2269  MEOH      H1B            -6.5403357787       -5.8962267755      -12.2841021547  MEOH      1577            0.0000000000
     31115      2269  MEOH      H1C            -6.4823076769       -6.6126662232      -13.9438818374  MEOH      1577            0.0000000000
     31116      2269  MEOH      LP1A           -8.4699031462       -6.5119057411      -13.4065646667  MEOH      1577            0.0000000000
     31117      2269  MEOH      LP1B           -8.5108452552       -6.3978010947      -12.7601491864  MEOH      1577            0.0000000000
     31118      2270  MEOH      C1             22.2871264910        8.6058722202      -28.9907035557  MEOH      1578            0.0000000000
     31119      2270  MEOH      DC1            22.2926041528        8.5962036893      -28.9880663900  MEOH      1578            0.0000000000
     31120      2270  MEOH      O1             23.5655712894        8.8503176614      -29.5474687209  MEOH      1578            0.0000000000
     31121      2270  MEOH      DO1            23.5686785277        8.8501460624      -29.5474634821  MEOH      1578            0.0000000000
     31122      2270  MEOH      HO1            24.0836567580        9.3333277061      -28.8847555522  MEOH      1578            0.0000000000
     31123      2270  MEOH      HO2            23.8699941596        7.9964519956      -29.8926355523  MEOH      1578            0.0000000000
     31124      2270  MEOH      H1A            21.6046463576        8.2023308204      -29.7689684251  MEOH      1578            0.0000000000
     31125      2270  MEOH      H1B            21.8692654825        9.5513308381      -28.5834920881  MEOH      1578            0.0000000000
     31126      2270  MEOH      H1C            22.3726642611        7.8701169282      -28.1626525657  MEOH      1578            0.0000000000
     31127      2270  MEOH      LP1A           23.7802492263        8.5832434133      -29.4761614326  MEOH      1578            0.0000000000
     31128      2270  MEOH      LP1B           23.5639270538        9.1533622475      -29.7225723341  MEOH      1578            0.0000000000
     31129      2271  MEOH      C1             -9.3243477204        7.2399543904      -21.2382729782  MEOH      1579            0.0000000000
     31130      2271  MEOH      DC1            -9.3225896351        7.2335637804      -21.2399995126  MEOH      1579            0.0000000000
     31131      2271  MEOH      O1             -8.2763494282        6.2865540911      -21.0669138938  MEOH      1579            0.0000000000
     31132      2271  MEOH      DO1            -8.2677463383        6.2837524952      -21.0724318060  MEOH      1579            0.0000000000
     31133      2271  MEOH      HO1            -7.5083515117        6.7721350447      -20.7273695851  MEOH      1579            0.0000000000
     31134      2271  MEOH      HO2            -8.6616839426        5.5737460165      -20.5336954008  MEOH      1579            0.0000000000
     31135      2271  MEOH      H1A           -10.2431538674        6.7405526772      -21.6133918835  MEOH      1579            0.0000000000
     31136      2271  MEOH      H1B            -9.0130362299        8.0270789142      -21.9578847779  MEOH      1579            0.0000000000
     31137      2271  MEOH      H1C            -9.5594088386        7.7123588868      -20.2605709462  MEOH      1579            0.0000000000
     31138      2271  MEOH      LP1A           -8.2928937190        6.1467797467      -20.7464619956  MEOH      1579            0.0000000000
     31139      2271  MEOH      LP1B           -8.0909403777        6.2580658697      -21.3623997738  MEOH      1579            0.0000000000
     31140      2272  MEOH      C1            -34.1179613425      -11.5086032337      -28.8365199234  MEOH      1580            0.0000000000
     31141      2272  MEOH      DC1           -34.1222204306      -11.4974952019      -28.8396497917  MEOH      1580            0.0000000000
     31142      2272  MEOH      O1            -33.5463080833      -11.6740286538      -30.1377001848  MEOH      1580            0.0000000000
     31143      2272  MEOH      DO1           -33.5548838133      -11.6677852708      -30.1438534451  MEOH      1580            0.0000000000
     31144      2272  MEOH      HO1           -32.5833487420      -11.6224827866      -30.0330468022  MEOH      1580            0.0000000000
     31145      2272  MEOH      HO2           -33.9427150319      -12.4849654847      -30.4928663275  MEOH      1580            0.0000000000
     31146      2272  MEOH      H1A           -35.2263369193      -11.5202997886      -28.9119372412  MEOH      1580            0.0000000000
     31147      2272  MEOH      H1B           -33.7903926653      -10.5424680868      -28.3965169237  MEOH      1580            0.0000000000
     31148      2272  MEOH      H1C           -33.8000482540      -12.3389181237      -28.1703146600  MEOH      1580            0.0000000000
     31149      2272  MEOH      LP1A          -33.4914107430      -12.0136565969      -30.2020363512  MEOH      1580            0.0000000000
     31150      2272  MEOH      LP1B          -33.5160672273      -11.3631246258      -30.2955741091  MEOH      1580            0.0000000000
     31151      2273  MEOH      C1            -29.6483434917       32.8283903321       10.2586511977  MEOH      1581            0.0000000000
     31152      2273  MEOH      DC1           -29.6500852436       32.8419294617       10.2485937946  MEOH      1581            0.0000000000
     31153      2273  MEOH      O1            -30.6218609760       33.8430211923       10.4912223481  MEOH      1581            0.0000000000
     31154      2273  MEOH      DO1           -30.6256779971       33.8504871658       10.4797356322  MEOH      1581            0.0000000000
     31155      2273  MEOH      HO1           -30.3814812922       34.2862551041       11.3198726405  MEOH      1581            0.0000000000
     31156      2273  MEOH      HO2           -30.7182424265       34.3342202830        9.6603588989  MEOH      1581            0.0000000000
     31157      2273  MEOH      H1A           -29.9629412576       32.1752981746        9.4167367843  MEOH      1581            0.0000000000
     31158      2273  MEOH      H1B           -29.5404740901       32.2019880481       11.1698621350  MEOH      1581            0.0000000000
     31159      2273  MEOH      H1C           -28.6634465430       33.2858403162       10.0240483138  MEOH      1581            0.0000000000
     31160      2273  MEOH      LP1A          -30.5226607564       34.1415297379       10.3377558545  MEOH      1581            0.0000000000
     31161      2273  MEOH      LP1B          -30.8899971582       33.7119887693       10.6740706237  MEOH      1581            0.0000000000
     31162      2274  MEOH      C1             -4.7795600175       -3.6697750684       17.3617710632  MEOH      1582            0.0000000000
     31163      2274  MEOH      DC1            -4.7753130322       -3.6716024460       17.3455827590  MEOH      1582            0.0000000000
     31164      2274  MEOH      O1             -4.5348963628       -4.9203025373       16.7198128144  MEOH      1582            0.0000000000
     31165      2274  MEOH      DO1            -4.5337326904       -4.9251140781       16.7015310384  MEOH      1582            0.0000000000
     31166      2274  MEOH      HO1            -3.5711507462       -4.9724323580       16.6229785832  MEOH      1582            0.0000000000
     31167      2274  MEOH      HO2            -4.9881996867       -5.5803745844       17.2672806130  MEOH      1582            0.0000000000
     31168      2274  MEOH      H1A            -5.8688825639       -3.5308253824       17.5302655024  MEOH      1582            0.0000000000
     31169      2274  MEOH      H1B            -4.3932200836       -2.8460976375       16.7241050490  MEOH      1582            0.0000000000
     31170      2274  MEOH      H1C            -4.2514090250       -3.6357755272       18.3386137119  MEOH      1582            0.0000000000
     31171      2274  MEOH      LP1A           -4.4984351601       -5.1727723765       16.9594574700  MEOH      1582            0.0000000000
     31172      2274  MEOH      LP1B           -4.5415886050       -4.8797635516       16.3722328890  MEOH      1582            0.0000000000
     31173      2275  MEOH      C1             33.2192151737        8.7159452440      -23.3962563329  MEOH      1583            0.0000000000
     31174      2275  MEOH      DC1            33.2101519244        8.7026700040      -23.3906992241  MEOH      1583            0.0000000000
     31175      2275  MEOH      O1             32.3547669137        7.6292204732      -23.7346543056  MEOH      1583            0.0000000000
     31176      2275  MEOH      DO1            32.3611084558        7.6097094848      -23.7298583864  MEOH      1583            0.0000000000
     31177      2275  MEOH      HO1            32.6004768349        7.3310037509      -24.6243696652  MEOH      1583            0.0000000000
     31178      2275  MEOH      HO2            32.3410206744        7.0356919428      -22.9675591835  MEOH      1583            0.0000000000
     31179      2275  MEOH      H1A            32.8226328324        9.2638182784      -22.5148491706  MEOH      1583            0.0000000000
     31180      2275  MEOH      H1B            33.2961473675        9.4221101680      -24.2505007579  MEOH      1583            0.0000000000
     31181      2275  MEOH      H1C            34.2326504299        8.3329216058      -23.1501610744  MEOH      1583            0.0000000000
     31182      2275  MEOH      LP1A           32.4949185253        7.3269334572      -23.6275091434  MEOH      1583            0.0000000000
     31183      2275  MEOH      LP1B           32.0645997880        7.7504447168      -23.8883023512  MEOH      1583            0.0000000000
     31184      2276  MEOH      C1             21.7492161396       31.2374978566       17.0196359600  MEOH      1584            0.0000000000
     31185      2276  MEOH      DC1            21.7654812046       31.2244407896       17.0143087929  MEOH      1584            0.0000000000
     31186      2276  MEOH      O1             22.2244406566       30.1479247881       16.2613215269  MEOH      1584            0.0000000000
     31187      2276  MEOH      DO1            22.2511643674       30.1441905628       16.2480988272  MEOH      1584            0.0000000000
     31188      2276  MEOH      HO1            21.9903339720       29.3588047296       16.7745306398  MEOH      1584            0.0000000000
     31189      2276  MEOH      HO2            21.8554620574       30.2857234186       15.3748869091  MEOH      1584            0.0000000000
     31190      2276  MEOH      H1A            21.9516732993       32.1712013893       16.4525999717  MEOH      1584            0.0000000000
     31191      2276  MEOH      H1B            22.2532211014       31.2958658043       18.0080150276  MEOH      1584            0.0000000000
     31192      2276  MEOH      H1C            20.6541572512       31.1344436876       17.1763103708  MEOH      1584            0.0000000000
     31193      2276  MEOH      LP1A           21.9782874331       30.0425147617       16.0359389258  MEOH      1584            0.0000000000
     31194      2276  MEOH      LP1B           22.5552120043       30.0755893570       16.3499663292  MEOH      1584            0.0000000000
     31195      2277  MEOH      C1             -6.5984648591      -23.8427004585        3.8497626310  MEOH      1585            0.0000000000
     31196      2277  MEOH      DC1            -6.6080641200      -23.8485808617        3.8496368757  MEOH      1585            0.0000000000
     31197      2277  MEOH      O1             -6.3501367099      -22.5265647655        4.3293403128  MEOH      1585            0.0000000000
     31198      2277  MEOH      DO1            -6.3573479950      -22.5295499440        4.3347347018  MEOH      1585            0.0000000000
     31199      2277  MEOH      HO1            -5.8668604740      -22.0674323003        3.6246833325  MEOH      1585            0.0000000000
     31200      2277  MEOH      HO2            -7.2060362444      -22.1889352150        4.6364921864  MEOH      1585            0.0000000000
     31201      2277  MEOH      H1A            -7.0794808565      -24.4552317434        4.6420694120  MEOH      1585            0.0000000000
     31202      2277  MEOH      H1B            -5.6440755503      -24.3242130677        3.5470950643  MEOH      1585            0.0000000000
     31203      2277  MEOH      H1C            -7.2823134065      -23.8138266157        2.9746406589  MEOH      1585            0.0000000000
     31204      2277  MEOH      LP1A           -6.6167971609      -22.3161323525        4.2450171045  MEOH      1585            0.0000000000
     31205      2277  MEOH      LP1B           -6.0470585758      -22.5180677138        4.5041872308  MEOH      1585            0.0000000000
     31206      2278  MEOH      C1             -3.3746869854       20.5041723912      -14.7875068906  MEOH      1586            0.0000000000
     31207      2278  MEOH      DC1            -3.3717188580       20.5141192082      -14.7971576485  MEOH      1586            0.0000000000
     31208      2278  MEOH      O1             -2.4418348207       19.4278300089      -14.8450578841  MEOH      1586            0.0000000000
     31209      2278  MEOH      DO1            -2.4251666672       19.4410918162      -14.8532702442  MEOH      1586            0.0000000000
     31210      2278  MEOH      HO1            -2.4526082709       19.0288827697      -13.9609622823  MEOH      1586            0.0000000000
     31211      2278  MEOH      HO2            -2.7522966448       18.8818397120      -15.5842520756  MEOH      1586            0.0000000000
     31212      2278  MEOH      H1A            -3.5362457195       20.8860416289      -15.8182326837  MEOH      1586            0.0000000000
     31213      2278  MEOH      H1B            -2.9870955597       21.3147996607      -14.1340718759  MEOH      1586            0.0000000000
     31214      2278  MEOH      H1C            -4.3514681267       20.1585961032      -14.3865123371  MEOH      1586            0.0000000000
     31215      2278  MEOH      LP1A           -2.6028566233       19.1353507825      -14.9500716033  MEOH      1586            0.0000000000
     31216      2278  MEOH      LP1B           -2.1219297837       19.5420380731      -14.7606938790  MEOH      1586            0.0000000000
     31217      2279  MEOH      C1            -11.4500820854       18.4391420837        1.2086007929  MEOH      1587            0.0000000000
     31218      2279  MEOH      DC1           -11.4628975789       18.4465891356        1.2099179587  MEOH      1587            0.0000000000
     31219      2279  MEOH      O1            -12.2681314203       19.1656737310        2.1246515022  MEOH      1587            0.0000000000
     31220      2279  MEOH      DO1           -12.2769427615       19.1709932163        2.1273530674  MEOH      1587            0.0000000000
     31221      2279  MEOH      HO1           -11.7841939098       19.1804110498        2.9651794895  MEOH      1587            0.0000000000
     31222      2279  MEOH      HO2           -12.5046260128       19.9916851565        1.6744566180  MEOH      1587            0.0000000000
     31223      2279  MEOH      H1A           -12.0033130532       18.2617645662        0.2616088645  MEOH      1587            0.0000000000
     31224      2279  MEOH      H1B           -11.1696286476       17.4609786024        1.6545414561  MEOH      1587            0.0000000000
     31225      2279  MEOH      H1C           -10.5206672207       19.0054279977        0.9853760778  MEOH      1587            0.0000000000
     31226      2279  MEOH      LP1A          -12.1929948249       19.5070803512        2.1074465104  MEOH      1587            0.0000000000
     31227      2279  MEOH      LP1B          -12.4883871160       18.9476743368        2.2873281526  MEOH      1587            0.0000000000
     31228      2280  MEOH      C1             10.9976350269      -11.0813022868       -6.7399202999  MEOH      1588            0.0000000000
     31229      2280  MEOH      DC1            11.0106272102      -11.0792146140       -6.7342188113  MEOH      1588            0.0000000000
     31230      2280  MEOH      O1             10.4346935371      -12.2126348728       -7.3967535545  MEOH      1588            0.0000000000
     31231      2280  MEOH      DO1            10.4459501844      -12.2065041307       -7.3910382706  MEOH      1588            0.0000000000
     31232      2280  MEOH      HO1            10.8177183133      -12.3077574728       -8.2828369093  MEOH      1588            0.0000000000
     31233      2280  MEOH      HO2            10.4243813417      -12.9309732133       -6.7449992387  MEOH      1588            0.0000000000
     31234      2280  MEOH      H1A            10.3656582984      -10.8477456433       -5.8565304023  MEOH      1588            0.0000000000
     31235      2280  MEOH      H1B            11.0153923161      -10.1898584969       -7.4027427871  MEOH      1588            0.0000000000
     31236      2280  MEOH      H1C            12.0289723358      -11.3066479047       -6.3936780323  MEOH      1588            0.0000000000
     31237      2280  MEOH      LP1A           10.6223507323      -12.4989664726       -7.3239593786  MEOH      1588            0.0000000000
     31238      2280  MEOH      LP1B           10.1459174361      -12.1186225632       -7.5707364533  MEOH      1588            0.0000000000
     31239      2281  MEOH      C1            -36.7513871963        5.6150407757       -2.7825061674  MEOH      1589            0.0000000000
     31240      2281  MEOH      DC1           -36.7558755659        5.6166939181       -2.7861366171  MEOH      1589            0.0000000000
     31241      2281  MEOH      O1            -36.5632124831        4.4873492598       -3.6361983883  MEOH      1589            0.0000000000
     31242      2281  MEOH      DO1           -36.5714430312        4.4837672541       -3.6348610640  MEOH      1589            0.0000000000
     31243      2281  MEOH      HO1           -35.9646136422        3.8845811209       -3.1679569993  MEOH      1589            0.0000000000
     31244      2281  MEOH      HO2           -37.4474130720        4.2138116561       -3.9264853128  MEOH      1589            0.0000000000
     31245      2281  MEOH      H1A           -37.0581405842        6.4898972441       -3.3947557238  MEOH      1589            0.0000000000
     31246      2281  MEOH      H1B           -35.8024812552        5.8801092013       -2.2690499913  MEOH      1589            0.0000000000
     31247      2281  MEOH      H1C           -37.5120634333        5.3879592546       -2.0052503232  MEOH      1589            0.0000000000
     31248      2281  MEOH      LP1A          -36.8092289654        4.2466676802       -3.5725723899  MEOH      1589            0.0000000000
     31249      2281  MEOH      LP1B          -36.2925617054        4.5435677197       -3.8508787119  MEOH      1589            0.0000000000
     31250      2282  MEOH      C1            -35.6912725438      -32.8247781766      -32.5514919838  MEOH      1590            0.0000000000
     31251      2282  MEOH      DC1           -35.6957732151      -32.8286141597      -32.5496683370  MEOH      1590            0.0000000000
     31252      2282  MEOH      O1            -35.7246739667      -31.4983774716      -33.0698719248  MEOH      1590            0.0000000000
     31253      2282  MEOH      DO1           -35.7261918749      -31.4957816751      -33.0678975512  MEOH      1590            0.0000000000
     31254      2282  MEOH      HO1           -36.1249264757      -30.9416514894      -32.3837566941  MEOH      1590            0.0000000000
     31255      2282  MEOH      HO2           -34.8199520055      -31.3219994153      -33.3719794480  MEOH      1590            0.0000000000
     31256      2282  MEOH      H1A           -35.3030206158      -33.5226316215      -33.3238791992  MEOH      1590            0.0000000000
     31257      2282  MEOH      H1B           -36.7136248673      -33.1450937625      -32.2573582523  MEOH      1590            0.0000000000
     31258      2282  MEOH      H1C           -35.0223388338      -32.8634937619      -31.6652923468  MEOH      1590            0.0000000000
     31259      2282  MEOH      LP1A          -35.4272816746      -31.3315174298      -32.9910331586  MEOH      1590            0.0000000000
     31260      2282  MEOH      LP1B          -36.0228160494      -31.4459879694      -33.2455609643  MEOH      1590            0.0000000000
     31261      2283  MEOH      C1            -36.5452345457      -28.9891275220       27.2787241520  MEOH      1591            0.0000000000
     31262      2283  MEOH      DC1           -36.5481855093      -28.9912824464       27.2726269322  MEOH      1591            0.0000000000
     31263      2283  MEOH      O1            -35.3347961842      -29.3043922015       27.9542699603  MEOH      1591            0.0000000000
     31264      2283  MEOH      DO1           -35.3405099121      -29.3130600056       27.9461152877  MEOH      1591            0.0000000000
     31265      2283  MEOH      HO1           -35.4744037132      -29.1272711020       28.8976881359  MEOH      1591            0.0000000000
     31266      2283  MEOH      HO2           -35.1002777869      -30.1963865326       27.6538581840  MEOH      1591            0.0000000000
     31267      2283  MEOH      H1A           -36.3681640315      -28.9352472422       26.1832498488  MEOH      1591            0.0000000000
     31268      2283  MEOH      H1B           -36.9488376792      -28.0139881638       27.6258966491  MEOH      1591            0.0000000000
     31269      2283  MEOH      H1C           -37.2679861589      -29.8100901675       27.4735867743  MEOH      1591            0.0000000000
     31270      2283  MEOH      LP1A          -35.3347073793      -29.6414013737       28.0487411728  MEOH      1591            0.0000000000
     31271      2283  MEOH      LP1B          -35.1262355032      -29.0234726533       27.9635785451  MEOH      1591            0.0000000000
     31272      2284  MEOH      C1            -31.8272552053       14.6602085367      -30.0305034992  MEOH      1592            0.0000000000
     31273      2284  MEOH      DC1           -31.8091588418       14.6546570086      -30.0132357196  MEOH      1592            0.0000000000
     31274      2284  MEOH      O1            -30.7417129127       14.3740270546      -29.1411188291  MEOH      1592            0.0000000000
     31275      2284  MEOH      DO1           -30.7257599854       14.3757866332      -29.1264207712  MEOH      1592            0.0000000000
     31276      2284  MEOH      HO1           -30.6540210689       13.4080251187      -29.1482181436  MEOH      1592            0.0000000000
     31277      2284  MEOH      HO2           -30.0042310589       14.9290918499      -29.4393194150  MEOH      1592            0.0000000000
     31278      2284  MEOH      H1A           -32.0311794727       15.7519937211      -30.0577248932  MEOH      1592            0.0000000000
     31279      2284  MEOH      H1B           -32.7486987777       14.1384096671      -29.6943656039  MEOH      1592            0.0000000000
     31280      2284  MEOH      H1C           -31.5805338108       14.3220665085      -31.0596339685  MEOH      1592            0.0000000000
     31281      2284  MEOH      LP1A          -30.4390568387       14.3767450077      -29.3168797848  MEOH      1592            0.0000000000
     31282      2284  MEOH      LP1B          -30.8616130380       14.3346952309      -28.8146575487  MEOH      1592            0.0000000000
     31283      2285  MEOH      C1            -32.3319886678      -23.1520088687      -15.4000828787  MEOH      1593            0.0000000000
     31284      2285  MEOH      DC1           -32.3420224964      -23.1567609049      -15.3956737813  MEOH      1593            0.0000000000
     31285      2285  MEOH      O1            -31.0065314021      -22.7645166927      -15.7486146984  MEOH      1593            0.0000000000
     31286      2285  MEOH      DO1           -31.0197380478      -22.7567061227      -15.7398018111  MEOH      1593            0.0000000000
     31287      2285  MEOH      HO1           -30.5385476057      -22.5045341835      -14.9397264111  MEOH      1593            0.0000000000
     31288      2285  MEOH      HO2           -30.6555723146      -23.4874759324      -16.2918067981  MEOH      1593            0.0000000000
     31289      2285  MEOH      H1A           -32.8769287339      -23.4128838501      -16.3324484553  MEOH      1593            0.0000000000
     31290      2285  MEOH      H1B           -32.8547139668      -22.3230902314      -14.8766584266  MEOH      1593            0.0000000000
     31291      2285  MEOH      H1C           -32.3064458020      -24.0503638159      -14.7469160153  MEOH      1593            0.0000000000
     31292      2285  MEOH      LP1A          -30.7948205312      -23.0431569877      -15.7424427379  MEOH      1593            0.0000000000
     31293      2285  MEOH      LP1B          -30.9976936079      -22.4229373042      -15.8244132126  MEOH      1593            0.0000000000
     31294      2286  MEOH      C1            -36.7723990226       27.3474455332      -11.8795099963  MEOH      1594            0.0000000000
     31295      2286  MEOH      DC1           -36.7837344524       27.3469656395      -11.8709865592  MEOH      1594            0.0000000000
     31296      2286  MEOH      O1            -35.4893881211       27.6977260338      -12.3963829858  MEOH      1594            0.0000000000
     31297      2286  MEOH      DO1           -35.5030319104       27.7021719118      -12.3856283232  MEOH      1594            0.0000000000
     31298      2286  MEOH      HO1           -34.7922843256       27.3026316673      -11.8497142191  MEOH      1594            0.0000000000
     31299      2286  MEOH      HO2           -35.5185815589       27.4859337220      -13.3425287250  MEOH      1594            0.0000000000
     31300      2286  MEOH      H1A           -37.5465063689       27.8536576313      -12.4950001489  MEOH      1594            0.0000000000
     31301      2286  MEOH      H1B           -36.8652418230       27.6929757852      -10.8276972465  MEOH      1594            0.0000000000
     31302      2286  MEOH      H1C           -36.9268534830       26.2487460658      -11.9371667432  MEOH      1594            0.0000000000
     31303      2286  MEOH      LP1A          -35.3874793011       27.4616707694      -12.6338540463  MEOH      1594            0.0000000000
     31304      2286  MEOH      LP1B          -35.3810438302       27.9985565631      -12.2540365518  MEOH      1594            0.0000000000
     31305      2287  MEOH      C1             30.7154039481      -19.2043788580        0.9328082846  MEOH      1595            0.0000000000
     31306      2287  MEOH      DC1            30.7300121910      -19.1918441054        0.9163467685  MEOH      1595            0.0000000000
     31307      2287  MEOH      O1             31.5708267949      -18.2364236821        1.5503449309  MEOH      1595            0.0000000000
     31308      2287  MEOH      DO1            31.5839909535      -18.2297139881        1.5330488686  MEOH      1595            0.0000000000
     31309      2287  MEOH      HO1            31.7014869021      -18.5243388525        2.4673688080  MEOH      1595            0.0000000000
     31310      2287  MEOH      HO2            32.3224486718      -18.1040952518        0.9516348662  MEOH      1595            0.0000000000
     31311      2287  MEOH      H1A            30.3552744463      -18.8161833497       -0.0438861359  MEOH      1595            0.0000000000
     31312      2287  MEOH      H1B            29.8208278359      -19.4007875572        1.5616788618  MEOH      1595            0.0000000000
     31313      2287  MEOH      H1C            31.2537437032      -20.1644681375        0.7820107928  MEOH      1595            0.0000000000
     31314      2287  MEOH      LP1A           31.9059612220      -18.3265326111        1.5048993960  MEOH      1595            0.0000000000
     31315      2287  MEOH      LP1B           31.3791745120      -17.9785725969        1.6892053656  MEOH      1595            0.0000000000
     31316      2288  MEOH      C1             -3.4370935519       -3.1593034439      -11.7460367870  MEOH      1596            0.0000000000
     31317      2288  MEOH      DC1            -3.4246056396       -3.1704560307      -11.7470548550  MEOH      1596            0.0000000000
     31318      2288  MEOH      O1             -2.4385864253       -4.1765461721      -11.6342068760  MEOH      1596            0.0000000000
     31319      2288  MEOH      DO1            -2.4369313058       -4.1860085931      -11.6324087473  MEOH      1596            0.0000000000
     31320      2288  MEOH      HO1            -2.0448592477       -4.2881269284      -12.5136547965  MEOH      1596            0.0000000000
     31321      2288  MEOH      HO2            -1.8766143362       -3.9099263560      -10.8898942772  MEOH      1596            0.0000000000
     31322      2288  MEOH      H1A            -3.9522594253       -3.0252683602      -10.7708651501  MEOH      1596            0.0000000000
     31323      2288  MEOH      H1B            -4.1931800965       -3.4521167172      -12.5055856829  MEOH      1596            0.0000000000
     31324      2288  MEOH      H1C            -2.9760062926       -2.1912513343      -12.0368883858  MEOH      1596            0.0000000000
     31325      2288  MEOH      LP1A           -2.1311409897       -4.0334899372      -11.5475338250  MEOH      1596            0.0000000000
     31326      2288  MEOH      LP1B           -2.5812412273       -4.4910706354      -11.6909868857  MEOH      1596            0.0000000000
     31327      2289  MEOH      C1             13.9030681807      -12.9738995766       27.8293367851  MEOH      1597            0.0000000000
     31328      2289  MEOH      DC1            13.9274499879      -12.9655269502       27.8414447066  MEOH      1597            0.0000000000
     31329      2289  MEOH      O1             12.6643820695      -12.4427623483       28.3043203936  MEOH      1597            0.0000000000
     31330      2289  MEOH      DO1            12.6889287290      -12.4300477693       28.3265907259  MEOH      1597            0.0000000000
     31331      2289  MEOH      HO1            11.9751742175      -12.9044940747       27.8016312740  MEOH      1597            0.0000000000
     31332      2289  MEOH      HO2            12.7026371861      -12.4861695189       29.2725932702  MEOH      1597            0.0000000000
     31333      2289  MEOH      H1A            14.7624660869      -12.4504650765       28.3002641307  MEOH      1597            0.0000000000
     31334      2289  MEOH      H1B            13.9513284936      -12.8518257660       26.7261187978  MEOH      1597            0.0000000000
     31335      2289  MEOH      H1C            13.9464238987      -14.0585422380       28.0659621828  MEOH      1597            0.0000000000
     31336      2289  MEOH      LP1A           12.5517357508      -12.6286984975       28.5786168670  MEOH      1597            0.0000000000
     31337      2289  MEOH      LP1B           12.5752098659      -12.1609892967       28.1168310192  MEOH      1597            0.0000000000
     31338      2290  MEOH      C1              8.7514823451      -25.5314986513       -4.3726838646  MEOH      1598            0.0000000000
     31339      2290  MEOH      DC1             8.7746366962      -25.5283215443       -4.3788966563  MEOH      1598            0.0000000000
     31340      2290  MEOH      O1              9.6903696085      -26.4557715005       -3.8200742069  MEOH      1598            0.0000000000
     31341      2290  MEOH      DO1             9.7320041969      -26.4543063205       -3.8683770642  MEOH      1598            0.0000000000
     31342      2290  MEOH      HO1            10.3552617655      -25.9329593104       -3.3452207196  MEOH      1598            0.0000000000
     31343      2290  MEOH      HO2             9.1453422420      -27.0345831917       -3.2643564765  MEOH      1598            0.0000000000
     31344      2290  MEOH      H1A             7.8022612916      -26.0522646848       -4.6218888645  MEOH      1598            0.0000000000
     31345      2290  MEOH      H1B             9.1649941165      -25.0863319695       -5.3028212958  MEOH      1598            0.0000000000
     31346      2290  MEOH      H1C             8.5167122308      -24.7317928871       -3.6380583245  MEOH      1598            0.0000000000
     31347      2290  MEOH      LP1A            9.5855532665      -26.5570257163       -3.5018586852  MEOH      1598            0.0000000000
     31348      2290  MEOH      LP1B            9.9465908935      -26.5181303369       -4.0502090123  MEOH      1598            0.0000000000
     31349      2291  MEOH      C1            -18.9652071679      -36.0692624689       23.8951578137  MEOH      1599            0.0000000000
     31350      2291  MEOH      DC1           -18.9649401248      -36.0694984931       23.8913162702  MEOH      1599            0.0000000000
     31351      2291  MEOH      O1            -19.6989209406      -37.2935380131       23.8653260669  MEOH      1599            0.0000000000
     31352      2291  MEOH      DO1           -19.6871884302      -37.2999640978       23.8678281410  MEOH      1599            0.0000000000
     31353      2291  MEOH      HO1           -20.5343947378      -37.1311392327       24.3306326005  MEOH      1599            0.0000000000
     31354      2291  MEOH      HO2           -19.7376051667      -37.5449057146       22.9292609996  MEOH      1599            0.0000000000
     31355      2291  MEOH      H1A           -18.0243545717      -36.1791047499       23.3145959582  MEOH      1599            0.0000000000
     31356      2291  MEOH      H1B           -18.7150847721      -35.7863964340       24.9400245966  MEOH      1599            0.0000000000
     31357      2291  MEOH      H1C           -19.5668343652      -35.2594602434       23.4297697271  MEOH      1599            0.0000000000
     31358      2291  MEOH      LP1A          -19.8962781571      -37.3078151732       23.5766284885  MEOH      1599            0.0000000000
     31359      2291  MEOH      LP1B          -19.6160621552      -37.4895553344       24.1431958771  MEOH      1599            0.0000000000
     31360      2292  MEOH      C1             34.3012753289       19.8286231722      -30.9979980135  MEOH      1600            0.0000000000
     31361      2292  MEOH      DC1            34.3050898482       19.8226079242      -30.9956314541  MEOH      1600            0.0000000000
     31362      2292  MEOH      O1             32.9996898635       20.3832246248      -31.1731880963  MEOH      1600            0.0000000000
     31363      2292  MEOH      DO1            33.0013265685       20.3627065467      -31.1762929031  MEOH      1600            0.0000000000
     31364      2292  MEOH      HO1            32.4525840155       20.1395244117      -30.4101773512  MEOH      1600            0.0000000000
     31365      2292  MEOH      HO2            33.1354787475       21.3222353849      -31.3749804947  MEOH      1600            0.0000000000
     31366      2292  MEOH      H1A            34.9459879226       20.1131606189      -31.8568956284  MEOH      1600            0.0000000000
     31367      2292  MEOH      H1B            34.2413283749       18.7206963479      -30.9412043875  MEOH      1600            0.0000000000
     31368      2292  MEOH      H1C            34.7545746022       20.2275348321      -30.0654154398  MEOH      1600            0.0000000000
     31369      2292  MEOH      LP1A           32.9875591083       20.7054549766      -31.0370982540  MEOH      1600            0.0000000000
     31370      2292  MEOH      LP1B           32.7965256334       20.1586883168      -31.3487094396  MEOH      1600            0.0000000000
     31371      2293  MEOH      C1             34.9745156140      -23.7450012346      -20.1866967821  MEOH      1601            0.0000000000
     31372      2293  MEOH      DC1            34.9763270541      -23.7408669059      -20.1862256473  MEOH      1601            0.0000000000
     31373      2293  MEOH      O1             35.7103715950      -22.6535266205      -20.7219115351  MEOH      1601            0.0000000000
     31374      2293  MEOH      DO1            35.7149382539      -22.6562793688      -20.7177686336  MEOH      1601            0.0000000000
     31375      2293  MEOH      HO1            36.4050599078      -22.4230813423      -20.0853558630  MEOH      1601            0.0000000000
     31376      2293  MEOH      HO2            35.9708740684      -22.9140838210      -21.6192121573  MEOH      1601            0.0000000000
     31377      2293  MEOH      H1A            34.1491807417      -23.9980337567      -20.8860664210  MEOH      1601            0.0000000000
     31378      2293  MEOH      H1B            34.5349503340      -23.4658708290      -19.2052745584  MEOH      1601            0.0000000000
     31379      2293  MEOH      H1C            35.6452665389      -24.6220114656      -20.0631360562  MEOH      1601            0.0000000000
     31380      2293  MEOH      LP1A           35.9740264049      -22.7721598556      -20.9191735354  MEOH      1601            0.0000000000
     31381      2293  MEOH      LP1B           35.5639710117      -22.3510282718      -20.6241280075  MEOH      1601            0.0000000000
     31382      2294  MEOH      C1              4.7741371493       23.4297342642       36.2187615677  MEOH      1602            0.0000000000
     31383      2294  MEOH      DC1             4.7716682063       23.4177496334       36.1975441156  MEOH      1602            0.0000000000
     31384      2294  MEOH      O1              3.5131829240       22.7539482294       36.0754226080  MEOH      1602            0.0000000000
     31385      2294  MEOH      DO1             3.5036753992       22.7555258640       36.0426148159  MEOH      1602            0.0000000000
     31386      2294  MEOH      HO1             2.8953593181       23.1816816100       36.6888051534  MEOH      1602            0.0000000000
     31387      2294  MEOH      HO2             3.6984190665       21.8072371397       36.1770379853  MEOH      1602            0.0000000000
     31388      2294  MEOH      H1A             5.3944962832       23.0001960364       37.0342200010  MEOH      1602            0.0000000000
     31389      2294  MEOH      H1B             4.6168462315       24.5107660994       36.4211244554  MEOH      1602            0.0000000000
     31390      2294  MEOH      H1C             5.3333443357       23.3646948923       35.2609629436  MEOH      1602            0.0000000000
     31391      2294  MEOH      LP1A            3.3235273138       22.9064904900       35.8239040038  MEOH      1602            0.0000000000
     31392      2294  MEOH      LP1B            3.4974751268       22.4819659658       36.2951472388  MEOH      1602            0.0000000000
     31393      2295  MEOH      C1             -6.6793151639      -16.5404849472       25.2889960014  MEOH      1603            0.0000000000
     31394      2295  MEOH      DC1            -6.6739493128      -16.5612425160       25.2653673282  MEOH      1603            0.0000000000
     31395      2295  MEOH      O1             -8.0177642535      -16.0483336101       25.3560111701  MEOH      1603            0.0000000000
     31396      2295  MEOH      DO1            -8.0127157473      -16.0616265287       25.3378184646  MEOH      1603            0.0000000000
     31397      2295  MEOH      HO1            -7.9886727042      -15.1333885697       25.6768370651  MEOH      1603            0.0000000000
     31398      2295  MEOH      HO2            -8.4542631966      -16.2923575565       24.5248547547  MEOH      1603            0.0000000000
     31399      2295  MEOH      H1A            -6.6947559492      -17.6280756710       25.0626577597  MEOH      1603            0.0000000000
     31400      2295  MEOH      H1B            -6.1671051581      -16.3847210414       26.2624945978  MEOH      1603            0.0000000000
     31401      2295  MEOH      H1C            -6.1288651685      -15.9930218398       24.4942570825  MEOH      1603            0.0000000000
     31402      2295  MEOH      LP1A           -8.1078009037      -15.9042800669       25.0500014018  MEOH      1603            0.0000000000
     31403      2295  MEOH      LP1B           -8.1560888512      -16.1199509274       25.6694394163  MEOH      1603            0.0000000000
     31404      2296  MEOH      C1             35.7001128408        8.7937202704      -29.4602673486  MEOH      1604            0.0000000000
     31405      2296  MEOH      DC1            35.7041782053        8.7844142132      -29.4557999016  MEOH      1604            0.0000000000
     31406      2296  MEOH      O1             36.7670782271        9.7189921568      -29.2228280203  MEOH      1604            0.0000000000
     31407      2296  MEOH      DO1            36.7750274873        9.7137297048      -29.2250297166  MEOH      1604            0.0000000000
     31408      2296  MEOH      HO1            37.4596772211        9.2695612318      -28.7136929906  MEOH      1604            0.0000000000
     31409      2296  MEOH      HO2            36.9534971594       10.1425209866      -30.0753368543  MEOH      1604            0.0000000000
     31410      2296  MEOH      H1A            34.8396613473        9.3308867091      -29.9134741938  MEOH      1604            0.0000000000
     31411      2296  MEOH      H1B            35.3609305154        8.3416447352      -28.5037611736  MEOH      1604            0.0000000000
     31412      2296  MEOH      H1C            36.0323897827        7.9920884112      -30.1540247967  MEOH      1604            0.0000000000
     31413      2296  MEOH      LP1A           36.9977330973        9.7057614867      -29.4857410862  MEOH      1604            0.0000000000
     31414      2296  MEOH      LP1B           36.7090294125        9.8950221015      -28.9259378155  MEOH      1604            0.0000000000
     31415      2297  MEOH      C1             31.8565815566      -20.9737891444       31.9135865531  MEOH      1605            0.0000000000
     31416      2297  MEOH      DC1            31.8436073965      -20.9498914944       31.9166435817  MEOH      1605            0.0000000000
     31417      2297  MEOH      O1             32.0180596729      -19.5506933277       31.9419223171  MEOH      1605            0.0000000000
     31418      2297  MEOH      DO1            32.0009910540      -19.5329486961       31.9389355885  MEOH      1605            0.0000000000
     31419      2297  MEOH      HO1            31.7813553362      -19.2611253324       32.8369203244  MEOH      1605            0.0000000000
     31420      2297  MEOH      HO2            32.9283331199      -19.3997111885       31.6427457023  MEOH      1605            0.0000000000
     31421      2297  MEOH      H1A            32.2411292946      -21.3907975437       30.9583127535  MEOH      1605            0.0000000000
     31422      2297  MEOH      H1B            30.7837684593      -21.2470068294       32.0071020921  MEOH      1605            0.0000000000
     31423      2297  MEOH      H1C            32.4236739376      -21.4456996173       32.7442656352  MEOH      1605            0.0000000000
     31424      2297  MEOH      LP1A           32.3458724361      -19.4692162509       32.0335753489  MEOH      1605            0.0000000000
     31425      2297  MEOH      LP1B           31.7205474909      -19.3944864672       31.8440146140  MEOH      1605            0.0000000000
     31426      2298  MEOH      C1              6.1279330080       31.9266853218       31.2662144120  MEOH      1606            0.0000000000
     31427      2298  MEOH      DC1             6.1168510909       31.9267170187       31.2689522335  MEOH      1606            0.0000000000
     31428      2298  MEOH      O1              6.8565279177       30.7602917893       31.6351594451  MEOH      1606            0.0000000000
     31429      2298  MEOH      DO1             6.8518773320       30.7631173910       31.6364615897  MEOH      1606            0.0000000000
     31430      2298  MEOH      HO1             6.2255211722       30.1064760743       31.9746524472  MEOH      1606            0.0000000000
     31431      2298  MEOH      HO2             7.3919359459       30.5377750083       30.8575190876  MEOH      1606            0.0000000000
     31432      2298  MEOH      H1A             6.8342474899       32.6900980505       30.8755203377  MEOH      1606            0.0000000000
     31433      2298  MEOH      H1B             5.5998412409       32.3508513859       32.1468523833  MEOH      1606            0.0000000000
     31434      2298  MEOH      H1C             5.3961517995       31.6728592511       30.4697286377  MEOH      1606            0.0000000000
     31435      2298  MEOH      LP1A            6.8839107352       30.5445250747       31.3609425489  MEOH      1606            0.0000000000
     31436      2298  MEOH      LP1B            6.9614221585       30.7850120760       31.9681550992  MEOH      1606            0.0000000000
     31437      2299  MEOH      C1            -17.3882723460      -24.6107057141      -26.3927365488  MEOH      1607            0.0000000000
     31438      2299  MEOH      DC1           -17.3876096250      -24.6087780678      -26.3746907770  MEOH      1607            0.0000000000
     31439      2299  MEOH      O1            -17.1599767930      -25.0678344517      -25.0611963264  MEOH      1607            0.0000000000
     31440      2299  MEOH      DO1           -17.1551664399      -25.0665199324      -25.0462990398  MEOH      1607            0.0000000000
     31441      2299  MEOH      HO1           -18.0018124224      -25.4589542551      -24.7797037449  MEOH      1607            0.0000000000
     31442      2299  MEOH      HO2           -16.3695127924      -25.6268572974      -25.1208630825  MEOH      1607            0.0000000000
     31443      2299  MEOH      H1A           -16.4641330856      -24.1494364646      -26.8020265528  MEOH      1607            0.0000000000
     31444      2299  MEOH      H1B           -18.2083175504      -23.8615599940      -26.4177875547  MEOH      1607            0.0000000000
     31445      2299  MEOH      H1C           -17.6668186403      -25.4680024519      -27.0421788221  MEOH      1607            0.0000000000
     31446      2299  MEOH      LP1A          -17.0388464050      -25.3961630681      -25.0664640348  MEOH      1607            0.0000000000
     31447      2299  MEOH      LP1B          -17.2319649847      -24.8124430764      -24.8329575356  MEOH      1607            0.0000000000
     31448      2300  MEOH      C1              7.9105794750       17.3486600539        6.1585585137  MEOH      1608            0.0000000000
     31449      2300  MEOH      DC1             7.8992878665       17.3550302005        6.1693847131  MEOH      1608            0.0000000000
     31450      2300  MEOH      O1              8.4728218107       18.3858771639        5.3500700478  MEOH      1608            0.0000000000
     31451      2300  MEOH      DO1             8.4630691205       18.3865667048        5.3510734575  MEOH      1608            0.0000000000
     31452      2300  MEOH      HO1             7.7687400701       18.9954374253        5.0787672819  MEOH      1608            0.0000000000
     31453      2300  MEOH      HO2             9.2610157798       18.7016372069        5.8190539092  MEOH      1608            0.0000000000
     31454      2300  MEOH      H1A             8.6816930319       16.5792489522        6.3769880006  MEOH      1608            0.0000000000
     31455      2300  MEOH      H1B             7.0708897250       16.8582520982        5.6212111762  MEOH      1608            0.0000000000
     31456      2300  MEOH      H1C             7.5404776908       17.7675584962        7.1186990057  MEOH      1608            0.0000000000
     31457      2300  MEOH      LP1A            8.5781340752       18.6514546269        5.5522529800  MEOH      1608            0.0000000000
     31458      2300  MEOH      LP1B            8.4720175812       18.2891813419        5.0136933672  MEOH      1608            0.0000000000
     31459      2301  MEOH      C1            -30.0315370036      -14.4482601656       27.0059412185  MEOH      1609            0.0000000000
     31460      2301  MEOH      DC1           -30.0401833741      -14.4390571207       26.9973989641  MEOH      1609            0.0000000000
     31461      2301  MEOH      O1            -29.0373825764      -13.4343974472       27.0644729708  MEOH      1609            0.0000000000
     31462      2301  MEOH      DO1           -29.0598262297      -13.4144988947       27.0664842557  MEOH      1609            0.0000000000
     31463      2301  MEOH      HO1           -28.4907730392      -13.6360592327       27.8400053935  MEOH      1609            0.0000000000
     31464      2301  MEOH      HO2           -28.6032384286      -13.4697696171       26.1977736755  MEOH      1609            0.0000000000
     31465      2301  MEOH      H1A           -30.5857902473      -14.3962562921       26.0444736209  MEOH      1609            0.0000000000
     31466      2301  MEOH      H1B           -30.7472167909      -14.3426662260       27.8491335824  MEOH      1609            0.0000000000
     31467      2301  MEOH      H1C           -29.5207607901      -15.4324789664       27.0748034854  MEOH      1609            0.0000000000
     31468      2301  MEOH      LP1A          -28.7576026879      -13.5301328739       26.8772353089  MEOH      1609            0.0000000000
     31469      2301  MEOH      LP1B          -29.1540877192      -13.1629994645       27.2521510053  MEOH      1609            0.0000000000
     31470      2302  MEOH      C1             18.6176389573        8.9970818761       -2.2976918312  MEOH      1610            0.0000000000
     31471      2302  MEOH      DC1            18.6297828474        9.0012590664       -2.2984038896  MEOH      1610            0.0000000000
     31472      2302  MEOH      O1             19.0244179317        7.7877942551       -2.9427938073  MEOH      1610            0.0000000000
     31473      2302  MEOH      DO1            19.0421010566        7.7857490953       -2.9425713596  MEOH      1610            0.0000000000
     31474      2302  MEOH      HO1            19.2421558119        7.1681018800       -2.2290210312  MEOH      1610            0.0000000000
     31475      2302  MEOH      HO2            18.2933571020        7.5599415463       -3.5382207191  MEOH      1610            0.0000000000
     31476      2302  MEOH      H1A            18.2752052063        9.7326510451       -3.0566372339  MEOH      1610            0.0000000000
     31477      2302  MEOH      H1B            19.4719045384        9.4194692738       -1.7266049699  MEOH      1610            0.0000000000
     31478      2302  MEOH      H1C            17.7846943708        8.7979387871       -1.5899727154  MEOH      1610            0.0000000000
     31479      2302  MEOH      LP1A           18.7463790589        7.5828139459       -2.9991627534  MEOH      1610            0.0000000000
     31480      2302  MEOH      LP1B           19.3688216563        7.7951431226       -3.0046975119  MEOH      1610            0.0000000000
     31481      2303  MEOH      C1             25.1838914861       34.4224843136       33.2808619972  MEOH      1611            0.0000000000
     31482      2303  MEOH      DC1            25.1821627014       34.4259247215       33.2943013017  MEOH      1611            0.0000000000
     31483      2303  MEOH      O1             25.8649128375       35.3016481379       32.3859563920  MEOH      1611            0.0000000000
     31484      2303  MEOH      DO1            25.8697713160       35.3094291574       32.3971715513  MEOH      1611            0.0000000000
     31485      2303  MEOH      HO1            25.3022693454       35.3991555681       31.6018488722  MEOH      1611            0.0000000000
     31486      2303  MEOH      HO2            26.1452943037       36.0666971316       32.9122512435  MEOH      1611            0.0000000000
     31487      2303  MEOH      H1A            25.8488134858       34.1677018733       34.1336724357  MEOH      1611            0.0000000000
     31488      2303  MEOH      H1B            24.9059487848       33.4894407686       32.7456063590  MEOH      1611            0.0000000000
     31489      2303  MEOH      H1C            24.2638706415       34.9170830683       33.6593520464  MEOH      1611            0.0000000000
     31490      2303  MEOH      LP1A           25.7768301343       35.6334824167       32.4539817467  MEOH      1611            0.0000000000
     31491      2303  MEOH      LP1B           26.0758527030       35.1182217514       32.1753403103  MEOH      1611            0.0000000000
     31492      2304  MEOH      C1             34.3082458755       26.8846656534       19.3094738317  MEOH      1612            0.0000000000
     31493      2304  MEOH      DC1            34.3106168197       26.8790792734       19.2987711635  MEOH      1612            0.0000000000
     31494      2304  MEOH      O1             34.7365578117       28.0133254107       20.0734362513  MEOH      1612            0.0000000000
     31495      2304  MEOH      DO1            34.7383396674       28.0147684370       20.0608112450  MEOH      1612            0.0000000000
     31496      2304  MEOH      HO1            34.5637504184       27.8052125067       21.0049547020  MEOH      1612            0.0000000000
     31497      2304  MEOH      HO2            35.6365204470       28.2137228357       19.7720923810  MEOH      1612            0.0000000000
     31498      2304  MEOH      H1A            34.3912190100       27.1170182923       18.2262154542  MEOH      1612            0.0000000000
     31499      2304  MEOH      H1B            33.2502434938       26.6465665001       19.5508464763  MEOH      1612            0.0000000000
     31500      2304  MEOH      H1C            34.9483589549       26.0076036100       19.5447150257  MEOH      1612            0.0000000000
     31501      2304  MEOH      LP1A           35.0742133636       27.9788719556       20.1588861649  MEOH      1612            0.0000000000
     31502      2304  MEOH      LP1B           34.4738632572       28.2422529116       20.1063569194  MEOH      1612            0.0000000000
     31503      2305  MEOH      C1             -7.8882192487        0.2043630194       -0.5738970661  MEOH      1613            0.0000000000
     31504      2305  MEOH      DC1            -7.8951672630        0.1945255720       -0.5586088323  MEOH      1613            0.0000000000
     31505      2305  MEOH      O1             -7.7352112404       -0.9953335500        0.1817005015  MEOH      1613            0.0000000000
     31506      2305  MEOH      DO1            -7.7359253344       -1.0032687911        0.1890537830  MEOH      1613            0.0000000000
     31507      2305  MEOH      HO1            -7.8440745493       -1.7264715696       -0.4463806858  MEOH      1613            0.0000000000
     31508      2305  MEOH      HO2            -6.9060520140       -0.8856017901        0.6729783437  MEOH      1613            0.0000000000
     31509      2305  MEOH      H1A            -7.8013374029        1.0913474593        0.0894513714  MEOH      1613            0.0000000000
     31510      2305  MEOH      H1B            -8.8872022942        0.2363955626       -1.0590030252  MEOH      1613            0.0000000000
     31511      2305  MEOH      H1C            -7.1045259195        0.2709157750       -1.3585731117  MEOH      1613            0.0000000000
     31512      2305  MEOH      LP1A           -7.3982182663       -1.0895101390        0.1898555899  MEOH      1613            0.0000000000
     31513      2305  MEOH      LP1B           -8.0448167250       -1.0963648248        0.3099078549  MEOH      1613            0.0000000000
     31514      2306  MEOH      C1             27.4250033806       14.9557749411       -8.8982199646  MEOH      1614            0.0000000000
     31515      2306  MEOH      DC1            27.4283367222       14.9667815430       -8.8854238917  MEOH      1614            0.0000000000
     31516      2306  MEOH      O1             26.6401301594       14.7438520991       -7.7218040945  MEOH      1614            0.0000000000
     31517      2306  MEOH      DO1            26.6388067274       14.7426073809       -7.7121103427  MEOH      1614            0.0000000000
     31518      2306  MEOH      HO1            26.4549998090       15.6180379670       -7.3444106369  MEOH      1614            0.0000000000
     31519      2306  MEOH      HO2            25.9070734588       14.1700168726       -7.9942761244  MEOH      1614            0.0000000000
     31520      2306  MEOH      H1A            27.6958651977       13.9774781539       -9.3497620698  MEOH      1614            0.0000000000
     31521      2306  MEOH      H1B            28.3609031049       15.4964850754       -8.6412272472  MEOH      1614            0.0000000000
     31522      2306  MEOH      H1C            26.8454056771       15.5397262030       -9.6448044723  MEOH      1614            0.0000000000
     31523      2306  MEOH      LP1A           26.2999365287       14.7398780733       -7.8039776961  MEOH      1614            0.0000000000
     31524      2306  MEOH      LP1B           26.8492900131       14.7010125342       -7.4444650831  MEOH      1614            0.0000000000
     31525      2307  MEOH      C1             27.0199940137       -3.7963273824      -22.0605571715  MEOH      1615            0.0000000000
     31526      2307  MEOH      DC1            27.0146405201       -3.8063649678      -22.0578518982  MEOH      1615            0.0000000000
     31527      2307  MEOH      O1             28.4201725411       -3.5278428936      -22.1665492586  MEOH      1615            0.0000000000
     31528      2307  MEOH      DO1            28.4229838906       -3.5399333471      -22.1757354003  MEOH      1615            0.0000000000
     31529      2307  MEOH      HO1            28.6774212341       -3.0417122597      -21.3675498113  MEOH      1615            0.0000000000
     31530      2307  MEOH      HO2            28.8383090586       -4.3733524482      -22.3927691681  MEOH      1615            0.0000000000
     31531      2307  MEOH      H1A            26.6453293442       -4.2283317564      -23.0130904285  MEOH      1615            0.0000000000
     31532      2307  MEOH      H1B            26.4589120754       -2.8568872520      -21.8683065540  MEOH      1615            0.0000000000
     31533      2307  MEOH      H1C            26.8380588414       -4.5188419532      -21.2364253326  MEOH      1615            0.0000000000
     31534      2307  MEOH      LP1A           28.6035235866       -3.7922537294      -22.0288201620  MEOH      1615            0.0000000000
     31535      2307  MEOH      LP1B           28.4715636685       -3.2238266926      -22.3321786689  MEOH      1615            0.0000000000
     31536      2308  MEOH      C1             20.9086785707       35.0391888928       25.7650335022  MEOH      1616            0.0000000000
     31537      2308  MEOH      DC1            20.9157339206       35.0341922139       25.7592074349  MEOH      1616            0.0000000000
     31538      2308  MEOH      O1             19.6097102769       34.5413772120       25.4677067624  MEOH      1616            0.0000000000
     31539      2308  MEOH      DO1            19.6134263779       34.5416431628       25.4713831701  MEOH      1616            0.0000000000
     31540      2308  MEOH      HO1            19.3285497352       33.9535293809       26.1862355914  MEOH      1616            0.0000000000
     31541      2308  MEOH      HO2            19.0771529255       35.3059054938       25.1979306074  MEOH      1616            0.0000000000
     31542      2308  MEOH      H1A            21.2715759527       35.6436948463       24.9064305423  MEOH      1616            0.0000000000
     31543      2308  MEOH      H1B            21.6212180752       34.2056193594       25.9432757177  MEOH      1616            0.0000000000
     31544      2308  MEOH      H1C            20.8463513862       35.6774692420       26.6722460020  MEOH      1616            0.0000000000
     31545      2308  MEOH      LP1A           19.3663394473       34.7584625060       25.5947682216  MEOH      1616            0.0000000000
     31546      2308  MEOH      LP1B           19.6344098075       34.2464906029       25.2808061981  MEOH      1616            0.0000000000
     31547      2309  MEOH      C1              6.7436371402      -28.3546217957      -27.4077995508  MEOH      1617            0.0000000000
     31548      2309  MEOH      DC1             6.7417080797      -28.3630951615      -27.4107234454  MEOH      1617            0.0000000000
     31549      2309  MEOH      O1              6.4974248918      -29.1275014398      -28.5818980853  MEOH      1617            0.0000000000
     31550      2309  MEOH      DO1             6.4783541919      -29.1277024389      -28.5912991253  MEOH      1617            0.0000000000
     31551      2309  MEOH      HO1             6.8903944558      -28.6412649133      -29.3235509435  MEOH      1617            0.0000000000
     31552      2309  MEOH      HO2             6.8187473569      -30.0186439167      -28.3732908951  MEOH      1617            0.0000000000
     31553      2309  MEOH      H1A             6.3396004346      -28.8804052028      -26.5163809336  MEOH      1617            0.0000000000
     31554      2309  MEOH      H1B             6.2396433559      -27.3686765062      -27.4984811486  MEOH      1617            0.0000000000
     31555      2309  MEOH      H1C             7.8358897780      -28.1968677563      -27.2796635361  MEOH      1617            0.0000000000
     31556      2309  MEOH      LP1A            6.7578369866      -29.3560120222      -28.6315816302  MEOH      1617            0.0000000000
     31557      2309  MEOH      LP1B            6.1902551032      -29.0365319632      -28.7228635963  MEOH      1617            0.0000000000
     31558      2310  MEOH      C1            -19.4352842892       -3.5133671422      -11.9625957465  MEOH      1618            0.0000000000
     31559      2310  MEOH      DC1           -19.4494718990       -3.5245164928      -11.9603302768  MEOH      1618            0.0000000000
     31560      2310  MEOH      O1            -20.6283218533       -3.9525823047      -12.6018600869  MEOH      1618            0.0000000000
     31561      2310  MEOH      DO1           -20.6509892553       -3.9536749290      -12.5945774072  MEOH      1618            0.0000000000
     31562      2310  MEOH      HO1           -21.1332769787       -4.4478561183      -11.9380648081  MEOH      1618            0.0000000000
     31563      2310  MEOH      HO2           -20.9998606591       -3.1856407915      -13.0651738373  MEOH      1618            0.0000000000
     31564      2310  MEOH      H1A           -18.7516524441       -3.0957515747      -12.7323786628  MEOH      1618            0.0000000000
     31565      2310  MEOH      H1B           -18.9234635910       -4.3575053479      -11.4528985179  MEOH      1618            0.0000000000
     31566      2310  MEOH      H1C           -19.6793491685       -2.7245690218      -11.2192580972  MEOH      1618            0.0000000000
     31567      2310  MEOH      LP1A          -20.8782377129       -3.7097982395      -12.5687245952  MEOH      1618            0.0000000000
     31568      2310  MEOH      LP1B          -20.5757725064       -4.2642047894      -12.7522927733  MEOH      1618            0.0000000000
     31569      2311  MEOH      C1             -2.9998590595       14.8892603847      -19.7679851133  MEOH      1619            0.0000000000
     31570      2311  MEOH      DC1            -2.9928173609       14.8965735894      -19.7648725784  MEOH      1619            0.0000000000
     31571      2311  MEOH      O1             -1.9160113990       15.6770848943      -19.2763060924  MEOH      1619            0.0000000000
     31572      2311  MEOH      DO1            -1.9098440520       15.6791454338      -19.2723296129  MEOH      1619            0.0000000000
     31573      2311  MEOH      HO1            -1.2424920844       15.7023629176      -19.9738967705  MEOH      1619            0.0000000000
     31574      2311  MEOH      HO2            -2.3089009198       16.4961991045      -18.9363211856  MEOH      1619            0.0000000000
     31575      2311  MEOH      H1A            -3.7513628074       14.7441291098      -18.9626901167  MEOH      1619            0.0000000000
     31576      2311  MEOH      H1B            -2.6227137882       13.8950832989      -20.0900012104  MEOH      1619            0.0000000000
     31577      2311  MEOH      H1C            -3.4782305645       15.3901911293      -20.6366335418  MEOH      1619            0.0000000000
     31578      2311  MEOH      LP1A           -1.9675961491       16.0141549263      -19.3551908633  MEOH      1619            0.0000000000
     31579      2311  MEOH      LP1B           -1.6882797880       15.4738008105      -19.1050930829  MEOH      1619            0.0000000000
     31580      2312  MEOH      C1             -6.0497339157       -8.1780867601       16.1261344132  MEOH      1620            0.0000000000
     31581      2312  MEOH      DC1            -6.0393358717       -8.1868343018       16.1328189638  MEOH      1620            0.0000000000
     31582      2312  MEOH      O1             -6.6317914385       -7.4517308445       17.2118311737  MEOH      1620            0.0000000000
     31583      2312  MEOH      DO1            -6.6292676717       -7.4700788653       17.2206117408  MEOH      1620            0.0000000000
     31584      2312  MEOH      HO1            -6.8676635901       -6.5724982204       16.8768471120  MEOH      1620            0.0000000000
     31585      2312  MEOH      HO2            -7.3139751528       -8.0296697395       17.5880119993  MEOH      1620            0.0000000000
     31586      2312  MEOH      H1A            -5.6542223653       -9.1478234960       16.4969474096  MEOH      1620            0.0000000000
     31587      2312  MEOH      H1B            -5.2192365939       -7.5929657613       15.6764360524  MEOH      1620            0.0000000000
     31588      2312  MEOH      H1C            -6.8141396063       -8.3741126038       15.3440993700  MEOH      1620            0.0000000000
     31589      2312  MEOH      LP1A           -6.9771874349       -7.5074601487       17.2216214923  MEOH      1620            0.0000000000
     31590      2312  MEOH      LP1B           -6.3823702849       -7.2834831126       17.3906657028  MEOH      1620            0.0000000000
     31591      2313  MEOH      C1            -25.4687866372       31.0656842516       -7.0930393882  MEOH      1621            0.0000000000
     31592      2313  MEOH      DC1           -25.4765499222       31.0743661956       -7.0940774012  MEOH      1621            0.0000000000
     31593      2313  MEOH      O1            -24.6616077169       32.2133435857       -7.3663758872  MEOH      1621            0.0000000000
     31594      2313  MEOH      DO1           -24.6708920585       32.2237128592       -7.3620120505  MEOH      1621            0.0000000000
     31595      2313  MEOH      HO1           -23.8574317737       31.8874721412       -7.7999757661  MEOH      1621            0.0000000000
     31596      2313  MEOH      HO2           -25.2407995754       32.8489142490       -7.8152486117  MEOH      1621            0.0000000000
     31597      2313  MEOH      H1A           -26.3629708927       31.3429712275       -6.4948191514  MEOH      1621            0.0000000000
     31598      2313  MEOH      H1B           -24.8842043439       30.3246674729       -6.5069688494  MEOH      1621            0.0000000000
     31599      2313  MEOH      H1C           -25.8125272652       30.6031640277       -8.0429017062  MEOH      1621            0.0000000000
     31600      2313  MEOH      LP1A          -24.7431277725       32.3450258049       -7.6802457227  MEOH      1621            0.0000000000
     31601      2313  MEOH      LP1B          -24.4529038046       32.2806281396       -7.0935839045  MEOH      1621            0.0000000000
     31602      2314  MEOH      C1              7.1158269625        6.7829442808      -32.5204591782  MEOH      1622            0.0000000000
     31603      2314  MEOH      DC1             7.1226180938        6.7904343773      -32.5129220927  MEOH      1622            0.0000000000
     31604      2314  MEOH      O1              6.1960814056        7.8465463638      -32.7542229020  MEOH      1622            0.0000000000
     31605      2314  MEOH      DO1             6.1998455090        7.8529036804      -32.7500705928  MEOH      1622            0.0000000000
     31606      2314  MEOH      HO1             6.4387103495        8.6017613866      -32.1959385071  MEOH      1622            0.0000000000
     31607      2314  MEOH      HO2             6.1319678815        7.9413311057      -33.7174494116  MEOH      1622            0.0000000000
     31608      2314  MEOH      H1A             6.7528539218        5.8718124652      -33.0423886624  MEOH      1622            0.0000000000
     31609      2314  MEOH      H1B             7.1845785565        6.5759913256      -31.4310718758  MEOH      1622            0.0000000000
     31610      2314  MEOH      H1C             8.1205624213        7.0385872685      -32.9198015392  MEOH      1622            0.0000000000
     31611      2314  MEOH      LP1A            6.3097884193        8.0474902507      -33.0172671366  MEOH      1622            0.0000000000
     31612      2314  MEOH      LP1B            5.9223102490        7.8177390884      -32.5380759736  MEOH      1622            0.0000000000
     31613      2315  MEOH      C1             27.2494518814       34.1496466970       23.0068835916  MEOH      1623            0.0000000000
     31614      2315  MEOH      DC1            27.2470032946       34.1450405130       22.9994929451  MEOH      1623            0.0000000000
     31615      2315  MEOH      O1             26.8534083841       32.8667606801       23.5015282318  MEOH      1623            0.0000000000
     31616      2315  MEOH      DO1            26.8544093454       32.8594778595       23.4999789299  MEOH      1623            0.0000000000
     31617      2315  MEOH      HO1            26.1712858447       33.0217148091       24.1735386929  MEOH      1623            0.0000000000
     31618      2315  MEOH      HO2            26.6495028690       32.3321233034       22.7182751333  MEOH      1623            0.0000000000
     31619      2315  MEOH      H1A            28.0745804164       34.0251717861       22.2734056441  MEOH      1623            0.0000000000
     31620      2315  MEOH      H1B            27.6040741805       34.7958668019       23.8381257955  MEOH      1623            0.0000000000
     31621      2315  MEOH      H1C            26.3924354949       34.6541398698       22.5115750496  MEOH      1623            0.0000000000
     31622      2315  MEOH      LP1A           26.5915336280       32.7392612529       23.3074521948  MEOH      1623            0.0000000000
     31623      2315  MEOH      LP1B           27.0564874455       32.7745566942       23.7712638799  MEOH      1623            0.0000000000
     31624      2316  MEOH      C1            -21.1085683276       -5.7402056815       -8.6980389589  MEOH      1624            0.0000000000
     31625      2316  MEOH      DC1           -21.1135291879       -5.7507552729       -8.6934420965  MEOH      1624            0.0000000000
     31626      2316  MEOH      O1            -20.4399693897       -4.4902043806       -8.5716870915  MEOH      1624            0.0000000000
     31627      2316  MEOH      DO1           -20.4419346130       -4.5012505203       -8.5634021167  MEOH      1624            0.0000000000
     31628      2316  MEOH      HO1           -20.7590380659       -4.0464557778       -7.7703242785  MEOH      1624            0.0000000000
     31629      2316  MEOH      HO2           -19.4983933604       -4.6589932826       -8.7324505441  MEOH      1624            0.0000000000
     31630      2316  MEOH      H1A           -20.9654195840       -6.1301015979       -9.7284809085  MEOH      1624            0.0000000000
     31631      2316  MEOH      H1B           -22.1952175983       -5.6244458650       -8.4977540904  MEOH      1624            0.0000000000
     31632      2316  MEOH      H1C           -20.6642164224       -6.4510435696       -7.9689423386  MEOH      1624            0.0000000000
     31633      2316  MEOH      LP1A          -20.1430173448       -4.5310102763       -8.3909819120  MEOH      1624            0.0000000000
     31634      2316  MEOH      LP1B          -20.6186358540       -4.2412515401       -8.7408047362  MEOH      1624            0.0000000000
     31635      2317  MEOH      C1            -24.1458049995       20.2483541950       24.1781956306  MEOH      1625            0.0000000000
     31636      2317  MEOH      DC1           -24.1450643067       20.2606839817       24.1836534662  MEOH      1625            0.0000000000
     31637      2317  MEOH      O1            -25.0035252332       19.6980663612       23.1762997696  MEOH      1625            0.0000000000
     31638      2317  MEOH      DO1           -25.0024648035       19.7145793684       23.1729563541  MEOH      1625            0.0000000000
     31639      2317  MEOH      HO1           -24.7425330919       20.0722912015       22.3202980919  MEOH      1625            0.0000000000
     31640      2317  MEOH      HO2           -24.9660007912       18.7376611172       23.3071190474  MEOH      1625            0.0000000000
     31641      2317  MEOH      H1A           -24.4423253389       19.8532069835       25.1733113887  MEOH      1625            0.0000000000
     31642      2317  MEOH      H1B           -24.2253558383       21.3564937841       24.1738006523  MEOH      1625            0.0000000000
     31643      2317  MEOH      H1C           -23.0910344710       19.9576881530       23.9850806798  MEOH      1625            0.0000000000
     31644      2317  MEOH      LP1A          -24.8671268569       19.4006012185       23.0521628621  MEOH      1625            0.0000000000
     31645      2317  MEOH      LP1B          -25.2890997903       19.8972516541       23.1406291730  MEOH      1625            0.0000000000
     31646      2318  MEOH      C1            -35.6619184421       -1.4998242582       17.9923965476  MEOH      1626            0.0000000000
     31647      2318  MEOH      DC1           -35.6643967907       -1.5044595610       17.9807837959  MEOH      1626            0.0000000000
     31648      2318  MEOH      O1            -36.4367004894       -2.3685944882       17.1554045087  MEOH      1626            0.0000000000
     31649      2318  MEOH      DO1           -36.4326539920       -2.3597468503       17.1372715752  MEOH      1626            0.0000000000
     31650      2318  MEOH      HO1           -36.9954239917       -2.9074165285       17.7371251099  MEOH      1626            0.0000000000
     31651      2318  MEOH      HO2           -36.8473675194       -1.8050037481       16.4811507967  MEOH      1626            0.0000000000
     31652      2318  MEOH      H1A           -34.8790427344       -0.9782518653       17.4013052980  MEOH      1626            0.0000000000
     31653      2318  MEOH      H1B           -35.1586691645       -2.0833111647       18.7927740816  MEOH      1626            0.0000000000
     31654      2318  MEOH      H1C           -36.3060834194       -0.7207008008       18.4531992393  MEOH      1626            0.0000000000
     31655      2318  MEOH      LP1A          -36.7357760720       -2.2114095347       17.0640443079  MEOH      1626            0.0000000000
     31656      2318  MEOH      LP1B          -36.2620109419       -2.6663416400       17.0976966618  MEOH      1626            0.0000000000
     31657      2319  MEOH      C1             26.0598330160       -9.6575996169      -20.4542690794  MEOH      1627            0.0000000000
     31658      2319  MEOH      DC1            26.0478536462       -9.6667407780      -20.4496996925  MEOH      1627            0.0000000000
     31659      2319  MEOH      O1             25.0036486935       -9.5778610535      -21.4067529228  MEOH      1627            0.0000000000
     31660      2319  MEOH      DO1            24.9982363416       -9.5762158156      -21.4123703565  MEOH      1627            0.0000000000
     31661      2319  MEOH      HO1            24.2582024320      -10.0917834641      -21.0587678268  MEOH      1627            0.0000000000
     31662      2319  MEOH      HO2            24.9130239550       -8.6384931460      -21.6309740010  MEOH      1627            0.0000000000
     31663      2319  MEOH      H1A            27.0000202601       -9.2505862758      -20.8840470306  MEOH      1627            0.0000000000
     31664      2319  MEOH      H1B            26.2244884469      -10.7130185441      -20.1488178112  MEOH      1627            0.0000000000
     31665      2319  MEOH      H1C            25.7753189090       -9.0448973986      -19.5722437300  MEOH      1627            0.0000000000
     31666      2319  MEOH      LP1A           24.8029647858       -9.2990120047      -21.3399010178  MEOH      1627            0.0000000000
     31667      2319  MEOH      LP1B           25.0333865154       -9.8367294152      -21.6404254142  MEOH      1627            0.0000000000
     31668      2320  MEOH      C1            -33.2664131322       20.5803457194        5.2737419239  MEOH      1628            0.0000000000
     31669      2320  MEOH      DC1           -33.2574234551       20.6024549061        5.2911804315  MEOH      1628            0.0000000000
     31670      2320  MEOH      O1            -32.9641902535       19.3478201404        4.6239116999  MEOH      1628            0.0000000000
     31671      2320  MEOH      DO1           -32.9544990835       19.3703648072        4.6449212124  MEOH      1628            0.0000000000
     31672      2320  MEOH      HO1           -32.3118298719       18.8295841815        5.1206585412  MEOH      1628            0.0000000000
     31673      2320  MEOH      HO2           -33.8195911279       18.9391551083        4.4185285564  MEOH      1628            0.0000000000
     31674      2320  MEOH      H1A           -34.0193004210       21.1292924369        4.6686475249  MEOH      1628            0.0000000000
     31675      2320  MEOH      H1B           -32.3540649778       21.2103656708        5.3445706461  MEOH      1628            0.0000000000
     31676      2320  MEOH      H1C           -33.7062822626       20.3857817998        6.2752313298  MEOH      1628            0.0000000000
     31677      2320  MEOH      LP1A          -33.1854871152       19.0986667373        4.7309176845  MEOH      1628            0.0000000000
     31678      2320  MEOH      LP1B          -32.6994851700       19.3926444057        4.3993632552  MEOH      1628            0.0000000000
     31679      2321  MEOH      C1             16.3662200667       22.8984448916       -9.7921346666  MEOH      1629            0.0000000000
     31680      2321  MEOH      DC1            16.3738905373       22.9031216066       -9.7868361493  MEOH      1629            0.0000000000
     31681      2321  MEOH      O1             15.2231859672       22.0571148515       -9.9513426126  MEOH      1629            0.0000000000
     31682      2321  MEOH      DO1            15.2311860158       22.0602040811       -9.9579318075  MEOH      1629            0.0000000000
     31683      2321  MEOH      HO1            14.4281051150       22.6118759213       -9.9199325211  MEOH      1629            0.0000000000
     31684      2321  MEOH      HO2            15.4045328366       21.4996616280      -10.7241680896  MEOH      1629            0.0000000000
     31685      2321  MEOH      H1A            17.2752819267       22.2624582189       -9.7334108353  MEOH      1629            0.0000000000
     31686      2321  MEOH      H1B            16.2747118387       23.4869047397       -8.8542315523  MEOH      1629            0.0000000000
     31687      2321  MEOH      H1C            16.4654220477       23.5849309187      -10.6600153621  MEOH      1629            0.0000000000
     31688      2321  MEOH      LP1A           15.1462935259       22.0226585563      -10.2910488331  MEOH      1629            0.0000000000
     31689      2321  MEOH      LP1B           15.1153270259       21.9413671469       -9.6391424882  MEOH      1629            0.0000000000
     31690      2322  MEOH      C1             16.4410194852      -21.4453057674        6.4756965846  MEOH      1630            0.0000000000
     31691      2322  MEOH      DC1            16.4355220158      -21.4394937508        6.4750063855  MEOH      1630            0.0000000000
     31692      2322  MEOH      O1             15.9296142743      -22.3969733425        5.5476964083  MEOH      1630            0.0000000000
     31693      2322  MEOH      DO1            15.9300985285      -22.3972512465        5.5459077847  MEOH      1630            0.0000000000
     31694      2322  MEOH      HO1            15.2233735695      -21.9721913372        5.0361455158  MEOH      1630            0.0000000000
     31695      2322  MEOH      HO2            16.7022503570      -22.7749308865        5.0992752016  MEOH      1630            0.0000000000
     31696      2322  MEOH      H1A            17.1710715268      -21.9421597757        7.1498487268  MEOH      1630            0.0000000000
     31697      2322  MEOH      H1B            15.6042378336      -21.0340281571        7.0798225624  MEOH      1630            0.0000000000
     31698      2322  MEOH      H1C            16.9470081511      -20.6175010768        5.9343687129  MEOH      1630            0.0000000000
     31699      2322  MEOH      LP1A           16.1111185378      -22.3821960126        5.2488020576  MEOH      1630            0.0000000000
     31700      2322  MEOH      LP1B           15.6695845753      -22.5795436026        5.6945046362  MEOH      1630            0.0000000000
     31701      2323  MEOH      C1             -3.3166122840       -7.1941577752       36.2371461347  MEOH      1631            0.0000000000
     31702      2323  MEOH      DC1            -3.3192266202       -7.2112472366       36.2446750623  MEOH      1631            0.0000000000
     31703      2323  MEOH      O1             -3.0204666763       -6.0025348358       35.5110721342  MEOH      1631            0.0000000000
     31704      2323  MEOH      DO1            -3.0192374807       -6.0188434901       35.5166991659  MEOH      1631            0.0000000000
     31705      2323  MEOH      HO1            -2.1279089818       -6.0722668521       35.1377382239  MEOH      1631            0.0000000000
     31706      2323  MEOH      HO2            -3.7831182735       -5.8447855550       34.9328181195  MEOH      1631            0.0000000000
     31707      2323  MEOH      H1A            -4.2875131159       -7.0724773522       36.7633271396  MEOH      1631            0.0000000000
     31708      2323  MEOH      H1B            -2.5218546449       -7.3865906680       36.9892437859  MEOH      1631            0.0000000000
     31709      2323  MEOH      H1C            -3.3924898204       -8.0557470821       35.5398460077  MEOH      1631            0.0000000000
     31710      2323  MEOH      LP1A           -3.1253961674       -6.0356075547       35.1788132033  MEOH      1631            0.0000000000
     31711      2323  MEOH      LP1B           -2.8761865718       -5.7652754690       35.7241243445  MEOH      1631            0.0000000000
     31712      2324  MEOH      C1            -33.4082547564       -9.0753136195       26.2970233597  MEOH      1632            0.0000000000
     31713      2324  MEOH      DC1           -33.3985838301       -9.0701174868       26.2924392221  MEOH      1632            0.0000000000
     31714      2324  MEOH      O1            -32.7456462426       -8.0427922385       27.0196758307  MEOH      1632            0.0000000000
     31715      2324  MEOH      DO1           -32.7458364409       -8.0314709024       27.0190840828  MEOH      1632            0.0000000000
     31716      2324  MEOH      HO1           -32.8470664282       -8.2703259983       27.9571417416  MEOH      1632            0.0000000000
     31717      2324  MEOH      HO2           -31.8599015395       -7.9794607529       26.6293612848  MEOH      1632            0.0000000000
     31718      2324  MEOH      H1A           -33.4105516761       -8.8541587332       25.2082597296  MEOH      1632            0.0000000000
     31719      2324  MEOH      H1B           -34.4580008888       -9.1598700016       26.6508655226  MEOH      1632            0.0000000000
     31720      2324  MEOH      H1C           -32.8725225219      -10.0336378071       26.4671019428  MEOH      1632            0.0000000000
     31721      2324  MEOH      LP1A          -32.4084050773       -8.1252251029       27.0640967638  MEOH      1632            0.0000000000
     31722      2324  MEOH      LP1B          -32.9687176953       -7.7815977888       27.0868813843  MEOH      1632            0.0000000000
     31723      2325  MEOH      C1             12.7956286211      -17.5331789635       -8.3430595085  MEOH      1633            0.0000000000
     31724      2325  MEOH      DC1            12.8071048892      -17.5419720909       -8.3381395867  MEOH      1633            0.0000000000
     31725      2325  MEOH      O1             12.8573233499      -16.9429792727       -7.0595260514  MEOH      1633            0.0000000000
     31726      2325  MEOH      DO1            12.8781973291      -16.9500277046       -7.0642624476  MEOH      1633            0.0000000000
     31727      2325  MEOH      HO1            13.4723791017      -16.1940771351       -7.1013830755  MEOH      1633            0.0000000000
     31728      2325  MEOH      HO2            11.9339339880      -16.7474840411       -6.8358439080  MEOH      1633            0.0000000000
     31729      2325  MEOH      H1A            12.0654734045      -18.3705488102       -8.3455293108  MEOH      1633            0.0000000000
     31730      2325  MEOH      H1B            13.7951341236      -17.9151437616       -8.6420789788  MEOH      1633            0.0000000000
     31731      2325  MEOH      H1C            12.4324712159      -16.7695328904       -9.0636720087  MEOH      1633            0.0000000000
     31732      2325  MEOH      LP1A           12.6101153679      -16.6971238621       -7.0288123619  MEOH      1633            0.0000000000
     31733      2325  MEOH      LP1B           13.1074822129      -17.0966674328       -6.8689991695  MEOH      1633            0.0000000000
     31734      2326  MEOH      C1              7.8114574518      -13.7471171823        5.3100390543  MEOH      1634            0.0000000000
     31735      2326  MEOH      DC1             7.8213327440      -13.7430337636        5.3082731431  MEOH      1634            0.0000000000
     31736      2326  MEOH      O1              8.0066016522      -12.3925163126        4.8977848874  MEOH      1634            0.0000000000
     31737      2326  MEOH      DO1             8.0040909451      -12.3868040057        4.8956507119  MEOH      1634            0.0000000000
     31738      2326  MEOH      HO1             7.1307494047      -11.9756477258        4.8996349390  MEOH      1634            0.0000000000
     31739      2326  MEOH      HO2             8.7218062762      -12.0448099714        5.4531970283  MEOH      1634            0.0000000000
     31740      2326  MEOH      H1A             8.7595000046      -14.3193391163        5.2200480720  MEOH      1634            0.0000000000
     31741      2326  MEOH      H1B             7.0459235917      -14.2296238444        4.6654723547  MEOH      1634            0.0000000000
     31742      2326  MEOH      H1C             7.4648967997      -13.7753228657        6.3652267893  MEOH      1634            0.0000000000
     31743      2326  MEOH      LP1A            8.0717058612      -12.1908176591        5.1763151284  MEOH      1634            0.0000000000
     31744      2326  MEOH      LP1B            7.9854566685      -12.3692464407        4.5492000301  MEOH      1634            0.0000000000
     31745      2327  MEOH      C1            -18.7255114685       -1.7846235735       24.6314205828  MEOH      1635            0.0000000000
     31746      2327  MEOH      DC1           -18.7380246514       -1.7823618948       24.6496233003  MEOH      1635            0.0000000000
     31747      2327  MEOH      O1            -17.7339635401       -2.6870087715       25.1101077214  MEOH      1635            0.0000000000
     31748      2327  MEOH      DO1           -17.7461270994       -2.6885814396       25.1333109146  MEOH      1635            0.0000000000
     31749      2327  MEOH      HO1           -16.9913257989       -2.6207943318       24.4896201443  MEOH      1635            0.0000000000
     31750      2327  MEOH      HO2           -17.6319156739       -2.4910715784       26.0546154505  MEOH      1635            0.0000000000
     31751      2327  MEOH      H1A           -19.6856949055       -1.9731687601       25.1575569537  MEOH      1635            0.0000000000
     31752      2327  MEOH      H1B           -18.8953903128       -1.9393957560       23.5444487571  MEOH      1635            0.0000000000
     31753      2327  MEOH      H1C           -18.3992919676       -0.7371441657       24.8066025703  MEOH      1635            0.0000000000
     31754      2327  MEOH      LP1A          -17.5231829015       -2.5239039464       25.3369740663  MEOH      1635            0.0000000000
     31755      2327  MEOH      LP1B          -17.7848444809       -3.0047689712       24.9724865554  MEOH      1635            0.0000000000
     31756      2328  MEOH      C1             12.5468262511       17.6743677366      -36.5161147030  MEOH      1636            0.0000000000
     31757      2328  MEOH      DC1            12.5443985631       17.6773869860      -36.5078365775  MEOH      1636            0.0000000000
     31758      2328  MEOH      O1             12.3656758550       17.4181111031      -35.1367083973  MEOH      1636            0.0000000000
     31759      2328  MEOH      DO1            12.3424439499       17.4193817210      -35.1274614515  MEOH      1636            0.0000000000
     31760      2328  MEOH      HO1            12.3877028391       16.4519556817      -35.0532906889  MEOH      1636            0.0000000000
     31761      2328  MEOH      HO2            13.0554432587       17.9444556153      -34.7030237384  MEOH      1636            0.0000000000
     31762      2328  MEOH      H1A            12.6900581754       18.7673033261      -36.6550298315  MEOH      1636            0.0000000000
     31763      2328  MEOH      H1B            11.6500317011       17.3342701642      -37.0768411765  MEOH      1636            0.0000000000
     31764      2328  MEOH      H1C            13.4445632452       17.1406455672      -36.8949681523  MEOH      1636            0.0000000000
     31765      2328  MEOH      LP1A           12.6755859751       17.4133637091      -34.9741255577  MEOH      1636            0.0000000000
     31766      2328  MEOH      LP1B           12.0244399370       17.3907730847      -35.0638339777  MEOH      1636            0.0000000000
     31767      2329  MEOH      C1            -31.9891487586      -18.6605511455       22.1719921767  MEOH      1637            0.0000000000
     31768      2329  MEOH      DC1           -31.9917050765      -18.6490770461       22.1702742827  MEOH      1637            0.0000000000
     31769      2329  MEOH      O1            -30.9243636721      -18.6396321499       23.1263437559  MEOH      1637            0.0000000000
     31770      2329  MEOH      DO1           -30.9292544793      -18.6305210590       23.1278970642  MEOH      1637            0.0000000000
     31771      2329  MEOH      HO1           -30.2159810324      -19.2149804286       22.7976061779  MEOH      1637            0.0000000000
     31772      2329  MEOH      HO2           -30.7607564513      -17.7067634636       23.3358400364  MEOH      1637            0.0000000000
     31773      2329  MEOH      H1A           -32.9097363752      -18.2366358677       22.6271133449  MEOH      1637            0.0000000000
     31774      2329  MEOH      H1B           -32.1751415637      -19.6998867846       21.8262912861  MEOH      1637            0.0000000000
     31775      2329  MEOH      H1C           -31.7430297301      -18.0536607674       21.2745343815  MEOH      1637            0.0000000000
     31776      2329  MEOH      LP1A          -30.7031008717      -18.3785152186       23.0531268087  MEOH      1637            0.0000000000
     31777      2329  MEOH      LP1B          -30.9734000232      -18.8900328976       23.3659160869  MEOH      1637            0.0000000000
     31778      2330  MEOH      C1            -22.9789446625      -19.5824296649       -0.2436639213  MEOH      1638            0.0000000000
     31779      2330  MEOH      DC1           -22.9761955945      -19.5967466537       -0.2383916212  MEOH      1638            0.0000000000
     31780      2330  MEOH      O1            -21.8588352142      -18.7243523495       -0.0326814110  MEOH      1638            0.0000000000
     31781      2330  MEOH      DO1           -21.8615117002      -18.7319358265       -0.0252986485  MEOH      1638            0.0000000000
     31782      2330  MEOH      HO1           -21.4569494324      -18.5496345679       -0.8980492615  MEOH      1638            0.0000000000
     31783      2330  MEOH      HO2           -22.1950016885      -17.9770568566        0.4863961822  MEOH      1638            0.0000000000
     31784      2330  MEOH      H1A           -23.4541790711      -19.8068528173        0.7351657401  MEOH      1638            0.0000000000
     31785      2330  MEOH      H1B           -22.6538854214      -20.5280502109       -0.7278738684  MEOH      1638            0.0000000000
     31786      2330  MEOH      H1C           -23.7294682827      -19.0774366434       -0.8886579871  MEOH      1638            0.0000000000
     31787      2330  MEOH      LP1A          -21.9601769571      -18.3896307013       -0.0465114282  MEOH      1638            0.0000000000
     31788      2330  MEOH      LP1B          -21.5716642181      -18.9150637243        0.0278329719  MEOH      1638            0.0000000000
     31789      2331  MEOH      C1            -10.6364710344       -0.4067537937      -22.7744409645  MEOH      1639            0.0000000000
     31790      2331  MEOH      DC1           -10.6355158723       -0.4070595322      -22.7770617399  MEOH      1639            0.0000000000
     31791      2331  MEOH      O1            -11.9390062163       -0.0134521525      -23.1823216263  MEOH      1639            0.0000000000
     31792      2331  MEOH      DO1           -11.9337492561       -0.0084327865      -23.1913419078  MEOH      1639            0.0000000000
     31793      2331  MEOH      HO1           -12.5606683675       -0.3027204962      -22.4962021055  MEOH      1639            0.0000000000
     31794      2331  MEOH      HO2           -11.8702251025        0.9232122484      -23.4248684435  MEOH      1639            0.0000000000
     31795      2331  MEOH      H1A            -9.9130605528       -0.2177537093      -23.5961935094  MEOH      1639            0.0000000000
     31796      2331  MEOH      H1B           -10.6097116529       -1.4881576178      -22.5211215910  MEOH      1639            0.0000000000
     31797      2331  MEOH      H1C           -10.3321297577        0.1867737001      -21.8859464505  MEOH      1639            0.0000000000
     31798      2331  MEOH      LP1A          -12.0085649270        0.3092171482      -23.0659338770  MEOH      1639            0.0000000000
     31799      2331  MEOH      LP1B          -12.0846060054       -0.2652326096      -23.3770196047  MEOH      1639            0.0000000000
     31800      2332  MEOH      C1             -1.6148926122       -7.2932361561        0.8469534110  MEOH      1640            0.0000000000
     31801      2332  MEOH      DC1            -1.6073789841       -7.2927460485        0.8454686539  MEOH      1640            0.0000000000
     31802      2332  MEOH      O1             -2.9397959763       -7.4914892953        0.3555172352  MEOH      1640            0.0000000000
     31803      2332  MEOH      DO1            -2.9343311641       -7.4897261964        0.3523875348  MEOH      1640            0.0000000000
     31804      2332  MEOH      HO1            -3.4317110464       -8.0142079238        1.0079624819  MEOH      1640            0.0000000000
     31805      2332  MEOH      HO2            -3.2573802992       -6.6256963861        0.0547800802  MEOH      1640            0.0000000000
     31806      2332  MEOH      H1A            -1.0045357716       -6.8009197258        0.0599273253  MEOH      1640            0.0000000000
     31807      2332  MEOH      H1B            -1.1498421247       -8.2699652549        1.1000330686  MEOH      1640            0.0000000000
     31808      2332  MEOH      H1C            -1.6358607422       -6.6547958616        1.7559502914  MEOH      1640            0.0000000000
     31809      2332  MEOH      LP1A           -3.1462910474       -7.2283157679        0.4584710119  MEOH      1640            0.0000000000
     31810      2332  MEOH      LP1B           -2.9529879142       -7.7819373681        0.1606688588  MEOH      1640            0.0000000000
     31811      2333  MEOH      C1            -20.1324551350        8.9905297138      -17.6794494232  MEOH      1641            0.0000000000
     31812      2333  MEOH      DC1           -20.1307544899        8.9844713537      -17.6923853347  MEOH      1641            0.0000000000
     31813      2333  MEOH      O1            -18.7734152488        9.3619491000      -17.9059304015  MEOH      1641            0.0000000000
     31814      2333  MEOH      DO1           -18.7828900907        9.3617945475      -17.9153632549  MEOH      1641            0.0000000000
     31815      2333  MEOH      HO1           -18.1694621040        8.6839261809      -17.5647185597  MEOH      1641            0.0000000000
     31816      2333  MEOH      HO2           -18.7076884209        9.7445365582      -18.7948661814  MEOH      1641            0.0000000000
     31817      2333  MEOH      H1A           -20.7686470149        9.8963563862      -17.7746278522  MEOH      1641            0.0000000000
     31818      2333  MEOH      H1B           -20.2613570711        8.5874179480      -16.6522171244  MEOH      1641            0.0000000000
     31819      2333  MEOH      H1C           -20.4564862607        8.2418546550      -18.4336446804  MEOH      1641            0.0000000000
     31820      2333  MEOH      LP1A          -18.6679704056        9.2453480986      -18.2186372794  MEOH      1641            0.0000000000
     31821      2333  MEOH      LP1B          -18.6543343793        9.5505859400      -17.6362344817  MEOH      1641            0.0000000000
     31822      2334  MEOH      C1             13.5208769063       23.8689956862       32.0026845027  MEOH      1642            0.0000000000
     31823      2334  MEOH      DC1            13.5175929978       23.8722412884       32.0024264713  MEOH      1642            0.0000000000
     31824      2334  MEOH      O1             13.6328667869       25.2596212568       32.2958977155  MEOH      1642            0.0000000000
     31825      2334  MEOH      DO1            13.6305870815       25.2654779432       32.2941235203  MEOH      1642            0.0000000000
     31826      2334  MEOH      HO1            13.1850594064       25.7442423682       31.5849047982  MEOH      1642            0.0000000000
     31827      2334  MEOH      HO2            13.3492421190       25.3573314533       33.2183454192  MEOH      1642            0.0000000000
     31828      2334  MEOH      H1A            14.1036200522       23.2871795039       32.7484869946  MEOH      1642            0.0000000000
     31829      2334  MEOH      H1B            13.9206225802       23.6471772918       30.9901031498  MEOH      1642            0.0000000000
     31830      2334  MEOH      H1C            12.4559659930       23.5578151572       32.0614418641  MEOH      1642            0.0000000000
     31831      2334  MEOH      LP1A           13.3632635884       25.3622631900       32.4940863856  MEOH      1642            0.0000000000
     31832      2334  MEOH      LP1B           13.9271176203       25.3880315448       32.1565160633  MEOH      1642            0.0000000000
     31833      2335  MEOH      C1            -33.1149770760       22.3537942396       20.6059204064  MEOH      1643            0.0000000000
     31834      2335  MEOH      DC1           -33.1231844004       22.3632263086       20.6139498044  MEOH      1643            0.0000000000
     31835      2335  MEOH      O1            -33.9174273611       23.3472956891       21.2516643030  MEOH      1643            0.0000000000
     31836      2335  MEOH      DO1           -33.9236204231       23.3615897209       21.2577095249  MEOH      1643            0.0000000000
     31837      2335  MEOH      HO1           -34.6655058387       22.8768254071       21.6515846788  MEOH      1643            0.0000000000
     31838      2335  MEOH      HO2           -33.3084468148       23.8671356330       21.7992125904  MEOH      1643            0.0000000000
     31839      2335  MEOH      H1A           -32.2862901398       22.8406090099       20.0485961366  MEOH      1643            0.0000000000
     31840      2335  MEOH      H1B           -33.7295808848       21.7693127230       19.8883101256  MEOH      1643            0.0000000000
     31841      2335  MEOH      H1C           -32.6790652036       21.6648654039       21.3606911664  MEOH      1643            0.0000000000
     31842      2335  MEOH      LP1A          -33.8077762687       23.3944378199       21.5806844505  MEOH      1643            0.0000000000
     31843      2335  MEOH      LP1B          -34.1539893618       23.4745073921       21.0272637628  MEOH      1643            0.0000000000
     31844      2336  MEOH      C1             24.5431054810       29.0521317660        3.0761829805  MEOH      1644            0.0000000000
     31845      2336  MEOH      DC1            24.5716014115       29.0445195463        3.1147016066  MEOH      1644            0.0000000000
     31846      2336  MEOH      O1             25.5796099271       28.8305324887        4.0357810349  MEOH      1644            0.0000000000
     31847      2336  MEOH      DO1            25.6139693787       28.8273229560        4.0778313235  MEOH      1644            0.0000000000
     31848      2336  MEOH      HO1            26.3398664643       28.6570950245        3.4588673110  MEOH      1644            0.0000000000
     31849      2336  MEOH      HO2            25.5581707171       29.6024888032        4.6227425403  MEOH      1644            0.0000000000
     31850      2336  MEOH      H1A            23.5632449111       29.2279030242        3.5694361898  MEOH      1644            0.0000000000
     31851      2336  MEOH      H1B            24.4461055199       28.1730424747        2.4037887306  MEOH      1644            0.0000000000
     31852      2336  MEOH      H1C            24.7866511799       29.9372615756        2.4504420491  MEOH      1644            0.0000000000
     31853      2336  MEOH      LP1A           25.7338020470       29.1338854288        4.1176454587  MEOH      1644            0.0000000000
     31854      2336  MEOH      LP1B           25.5914712819       28.4918097315        4.1231091634  MEOH      1644            0.0000000000
     31855      2337  MEOH      C1            -22.2963951393       23.5045928607       10.9637525873  MEOH      1645            0.0000000000
     31856      2337  MEOH      DC1           -22.3047642665       23.4945074124       10.9605274623  MEOH      1645            0.0000000000
     31857      2337  MEOH      O1            -22.5045519347       24.8984543644       11.1912246183  MEOH      1645            0.0000000000
     31858      2337  MEOH      DO1           -22.5147605302       24.8953439216       11.1834061408  MEOH      1645            0.0000000000
     31859      2337  MEOH      HO1           -22.4301369594       25.3599670531       10.3413020033  MEOH      1645            0.0000000000
     31860      2337  MEOH      HO2           -23.2942141415       24.9735587842       11.7495192764  MEOH      1645            0.0000000000
     31861      2337  MEOH      H1A           -22.1889359459       22.9830318443       11.9388154718  MEOH      1645            0.0000000000
     31862      2337  MEOH      H1B           -21.3647914248       23.3466400408       10.3793841883  MEOH      1645            0.0000000000
     31863      2337  MEOH      H1C           -23.1705576446       23.0735563423       10.4304905168  MEOH      1645            0.0000000000
     31864      2337  MEOH      LP1A          -22.8452982274       24.9742970036       11.1659292017  MEOH      1645            0.0000000000
     31865      2337  MEOH      LP1B          -22.2001960314       25.0543259627       11.2658672932  MEOH      1645            0.0000000000
     31866      2338  MEOH      C1             -4.8702161443      -34.8236630031       16.4345166113  MEOH      1646            0.0000000000
     31867      2338  MEOH      DC1            -4.8855078116      -34.8216415807       16.4423796949  MEOH      1646            0.0000000000
     31868      2338  MEOH      O1             -6.2826444370      -34.8599440153       16.5765518222  MEOH      1646            0.0000000000
     31869      2338  MEOH      DO1            -6.2976970768      -34.8561356130       16.5930586919  MEOH      1646            0.0000000000
     31870      2338  MEOH      HO1            -6.4861126530      -35.7506991646       16.9022141459  MEOH      1646            0.0000000000
     31871      2338  MEOH      HO2            -6.5129193508      -34.0648358951       17.0821965022  MEOH      1646            0.0000000000
     31872      2338  MEOH      H1A            -4.5575743478      -33.9167105371       15.8741476863  MEOH      1646            0.0000000000
     31873      2338  MEOH      H1B            -4.5244118907      -35.7235690977       15.8823305565  MEOH      1646            0.0000000000
     31874      2338  MEOH      H1C            -4.3860752631      -34.8410029881       17.4343305611  MEOH      1646            0.0000000000
     31875      2338  MEOH      LP1A           -6.3736314219      -34.7508244568       16.8964178731  MEOH      1646            0.0000000000
     31876      2338  MEOH      LP1B           -6.4304413756      -34.9643262999       16.2769514156  MEOH      1646            0.0000000000
     31877      2339  MEOH      C1              0.0387497425       12.1947383902       10.3302663371  MEOH      1647            0.0000000000
     31878      2339  MEOH      DC1             0.0508585779       12.1899846716       10.3103940390  MEOH      1647            0.0000000000
     31879      2339  MEOH      O1              0.9791335532       11.5576169848        9.4578782528  MEOH      1647            0.0000000000
     31880      2339  MEOH      DO1             0.9965807379       11.5573382099        9.4378914785  MEOH      1647            0.0000000000
     31881      2339  MEOH      HO1             1.6567213476       11.2025477193       10.0542846559  MEOH      1647            0.0000000000
     31882      2339  MEOH      HO2             0.4518885868       10.9518220889        8.9138880960  MEOH      1647            0.0000000000
     31883      2339  MEOH      H1A            -0.8164775813       12.6055808281        9.7522389015  MEOH      1647            0.0000000000
     31884      2339  MEOH      H1B             0.5308379034       13.0250172189       10.8805456377  MEOH      1647            0.0000000000
     31885      2339  MEOH      H1C            -0.3529161363       11.4640237366       11.0698438760  MEOH      1647            0.0000000000
     31886      2339  MEOH      LP1A            0.8860719153       11.2244936475        9.4043210526  MEOH      1647            0.0000000000
     31887      2339  MEOH      LP1B            1.2230360104       11.7872735997        9.3565400536  MEOH      1647            0.0000000000
     31888      2340  MEOH      C1            -25.0730697828      -31.2942716756      -17.0465469605  MEOH      1648            0.0000000000
     31889      2340  MEOH      DC1           -25.0668753219      -31.2904529614      -17.0439686934  MEOH      1648            0.0000000000
     31890      2340  MEOH      O1            -23.7414704877      -30.7981180849      -17.1885639545  MEOH      1648            0.0000000000
     31891      2340  MEOH      DO1           -23.7317470000      -30.7982995124      -17.1875040223  MEOH      1648            0.0000000000
     31892      2340  MEOH      HO1           -23.2104603118      -31.2243255924      -16.4977127734  MEOH      1648            0.0000000000
     31893      2340  MEOH      HO2           -23.5192922989      -30.8883174653      -18.1284580571  MEOH      1648            0.0000000000
     31894      2340  MEOH      H1A           -25.7678193592      -30.7265582419      -17.7017915585  MEOH      1648            0.0000000000
     31895      2340  MEOH      H1B           -25.3987001123      -31.1891647912      -15.9895519593  MEOH      1648            0.0000000000
     31896      2340  MEOH      H1C           -25.1099468737      -32.3680126458      -17.3294628657  MEOH      1648            0.0000000000
     31897      2340  MEOH      LP1A          -23.5615887626      -30.9999548080      -17.4108351901  MEOH      1648            0.0000000000
     31898      2340  MEOH      LP1B          -23.7014712117      -30.5066437305      -16.9989781991  MEOH      1648            0.0000000000
     31899      2341  MEOH      C1            -18.0596220259       22.1747340115       14.8825163476  MEOH      1649            0.0000000000
     31900      2341  MEOH      DC1           -18.0551449971       22.1851784546       14.8917131338  MEOH      1649            0.0000000000
     31901      2341  MEOH      O1            -16.7456662073       22.2596976586       14.3239067146  MEOH      1649            0.0000000000
     31902      2341  MEOH      DO1           -16.7410629879       22.2809235472       14.3352069095  MEOH      1649            0.0000000000
     31903      2341  MEOH      HO1           -16.8364200727       22.2117023441       13.3593549087  MEOH      1649            0.0000000000
     31904      2341  MEOH      HO2           -16.2934728791       22.9910102117       14.7729091017  MEOH      1649            0.0000000000
     31905      2341  MEOH      H1A           -17.9923209373       21.9619023634       15.9708610786  MEOH      1649            0.0000000000
     31906      2341  MEOH      H1B           -18.6288473771       21.3523355787       14.3988177666  MEOH      1649            0.0000000000
     31907      2341  MEOH      H1C           -18.6009068580       23.1340080892       14.7371720136  MEOH      1649            0.0000000000
     31908      2341  MEOH      LP1A          -16.6604973171       22.5946551180       14.2686820771  MEOH      1649            0.0000000000
     31909      2341  MEOH      LP1B          -16.6064588129       21.9397714813       14.2961841178  MEOH      1649            0.0000000000
     31910      2342  MEOH      C1             -1.5434310340        2.5758929130      -16.9700689028  MEOH      1650            0.0000000000
     31911      2342  MEOH      DC1            -1.5334977229        2.5801995088      -16.9789928495  MEOH      1650            0.0000000000
     31912      2342  MEOH      O1             -2.5385878661        2.0209145314      -17.8291854064  MEOH      1650            0.0000000000
     31913      2342  MEOH      DO1            -2.5254417224        2.0202657158      -17.8358611530  MEOH      1650            0.0000000000
     31914      2342  MEOH      HO1            -3.0266430230        1.3549867875      -17.3200268799  MEOH      1650            0.0000000000
     31915      2342  MEOH      HO2            -3.0248189650        2.7799856331      -18.1873618728  MEOH      1650            0.0000000000
     31916      2342  MEOH      H1A            -0.9791342866        3.3580107762      -17.5215957194  MEOH      1650            0.0000000000
     31917      2342  MEOH      H1B            -0.8395231940        1.7827768186      -16.6387056377  MEOH      1650            0.0000000000
     31918      2342  MEOH      H1C            -2.0253624939        3.0377953453      -16.0819758826  MEOH      1650            0.0000000000
     31919      2342  MEOH      LP1A           -2.8332822430        2.2085328607      -17.8078643656  MEOH      1650            0.0000000000
     31920      2342  MEOH      LP1B           -2.4073277318        1.7470403370      -18.0031500659  MEOH      1650            0.0000000000
     31921      2343  MEOH      C1             18.1638533073        9.2336895565      -15.5752227397  MEOH      1651            0.0000000000
     31922      2343  MEOH      DC1            18.1572032661        9.2339596250      -15.5681298355  MEOH      1651            0.0000000000
     31923      2343  MEOH      O1             19.0380802773        8.1647430842      -15.2113721590  MEOH      1651            0.0000000000
     31924      2343  MEOH      DO1            19.0335441498        8.1660552548      -15.2103870634  MEOH      1651            0.0000000000
     31925      2343  MEOH      HO1            19.1043454419        7.5632448205      -15.9694676466  MEOH      1651            0.0000000000
     31926      2343  MEOH      HO2            19.8358907252        8.5866444735      -14.8558476073  MEOH      1651            0.0000000000
     31927      2343  MEOH      H1A            18.0776934827        9.9489706597      -14.7294861211  MEOH      1651            0.0000000000
     31928      2343  MEOH      H1B            17.1499434333        8.8306741302      -15.7847133958  MEOH      1651            0.0000000000
     31929      2343  MEOH      H1C            18.5551922740        9.7671453002      -16.4677471277  MEOH      1651            0.0000000000
     31930      2343  MEOH      LP1A           19.3688030610        8.2488157095      -15.2891811173  MEOH      1651            0.0000000000
     31931      2343  MEOH      LP1B           18.8553652032        7.9061685417      -15.0621930463  MEOH      1651            0.0000000000
     31932      2344  MEOH      C1             26.8166665833      -32.3776292587       31.4470364767  MEOH      1652            0.0000000000
     31933      2344  MEOH      DC1            26.8126423010      -32.3809614733       31.4489038560  MEOH      1652            0.0000000000
     31934      2344  MEOH      O1             25.7493290222      -31.7989687108       30.6900478918  MEOH      1652            0.0000000000
     31935      2344  MEOH      DO1            25.7457459192      -31.7895666535       30.6952486982  MEOH      1652            0.0000000000
     31936      2344  MEOH      HO1            26.1501535593      -31.4090262560       29.8974669347  MEOH      1652            0.0000000000
     31937      2344  MEOH      HO2            25.0923912789      -32.5050689963       30.5863406684  MEOH      1652            0.0000000000
     31938      2344  MEOH      H1A            26.4044961825      -32.8541399117       32.3621179803  MEOH      1652            0.0000000000
     31939      2344  MEOH      H1B            27.5452983050      -31.5929190207       31.7430882595  MEOH      1652            0.0000000000
     31940      2344  MEOH      H1C            27.3415621777      -33.1489334167       30.8437989519  MEOH      1652            0.0000000000
     31941      2344  MEOH      LP1A           25.6158460814      -32.0365337721       30.4704001143  MEOH      1652            0.0000000000
     31942      2344  MEOH      LP1B           25.6966975282      -31.4680026662       30.7910003716  MEOH      1652            0.0000000000
     31943      2345  MEOH      C1            -14.7280180752       17.7068967042       23.3573801621  MEOH      1653            0.0000000000
     31944      2345  MEOH      DC1           -14.7264528165       17.7157673072       23.3808567680  MEOH      1653            0.0000000000
     31945      2345  MEOH      O1            -14.7826980948       18.4519435340       24.5755895386  MEOH      1653            0.0000000000
     31946      2345  MEOH      DO1           -14.7810490247       18.4521154067       24.5909848721  MEOH      1653            0.0000000000
     31947      2345  MEOH      HO1           -14.2885774890       19.2702467856       24.4108940135  MEOH      1653            0.0000000000
     31948      2345  MEOH      HO2           -15.7206230131       18.4836012944       24.8209354860  MEOH      1653            0.0000000000
     31949      2345  MEOH      H1A           -15.1965606121       16.7082421982       23.4895848109  MEOH      1653            0.0000000000
     31950      2345  MEOH      H1B           -13.6694238459       17.5650271005       23.0514843086  MEOH      1653            0.0000000000
     31951      2345  MEOH      H1C           -15.2657417575       18.2467522387       22.5488442970  MEOH      1653            0.0000000000
     31952      2345  MEOH      LP1A          -15.0666828470       18.6565066555       24.5781566137  MEOH      1653            0.0000000000
     31953      2345  MEOH      LP1B          -14.5140836778       18.3638441013       24.7819503510  MEOH      1653            0.0000000000
     31954      2346  MEOH      C1            -27.9692370810        1.5632113197       -0.7135555888  MEOH      1654            0.0000000000
     31955      2346  MEOH      DC1           -27.9760778951        1.5758521302       -0.6953600984  MEOH      1654            0.0000000000
     31956      2346  MEOH      O1            -26.7540660764        1.0224694190       -1.2342210970  MEOH      1654            0.0000000000
     31957      2346  MEOH      DO1           -26.7660942200        1.0375449780       -1.2362845811  MEOH      1654            0.0000000000
     31958      2346  MEOH      HO1           -26.0831111527        1.0275729993       -0.5337259550  MEOH      1654            0.0000000000
     31959      2346  MEOH      HO2           -27.0025530040        0.1713869287       -1.6276837281  MEOH      1654            0.0000000000
     31960      2346  MEOH      H1A           -28.7414759168        1.5457348675       -1.5120934746  MEOH      1654            0.0000000000
     31961      2346  MEOH      H1B           -27.8090746720        2.6161262158       -0.3972658099  MEOH      1654            0.0000000000
     31962      2346  MEOH      H1C           -28.3286229032        0.9507158286        0.1408518703  MEOH      1654            0.0000000000
     31963      2346  MEOH      LP1A          -26.7490896326        0.6752593346       -1.1903988163  MEOH      1654            0.0000000000
     31964      2346  MEOH      LP1B          -26.5604133033        1.2774931588       -1.3755062540  MEOH      1654            0.0000000000
     31965      2347  MEOH      C1            -34.4123776880       11.1690405052       24.6005173698  MEOH      1655            0.0000000000
     31966      2347  MEOH      DC1           -34.4261047900       11.1735682339       24.5995105724  MEOH      1655            0.0000000000
     31967      2347  MEOH      O1            -34.7907408912        9.8300735520       24.9011274983  MEOH      1655            0.0000000000
     31968      2347  MEOH      DO1           -34.7977143286        9.8248771921       24.9018459799  MEOH      1655            0.0000000000
     31969      2347  MEOH      HO1           -34.7517249842        9.7677107580       25.8683341161  MEOH      1655            0.0000000000
     31970      2347  MEOH      HO2           -35.6386248235        9.6933601489       24.4502369543  MEOH      1655            0.0000000000
     31971      2347  MEOH      H1A           -34.3434407783       11.2977727863       23.4991560739  MEOH      1655            0.0000000000
     31972      2347  MEOH      H1B           -33.4211379412       11.3889307071       25.0515307442  MEOH      1655            0.0000000000
     31973      2347  MEOH      H1C           -35.1570958251       11.8826912899       25.0133350702  MEOH      1655            0.0000000000
     31974      2347  MEOH      LP1A          -35.1380244916        9.8095613297       24.9395117349  MEOH      1655            0.0000000000
     31975      2347  MEOH      LP1B          -34.5083939905        9.6232420211       24.9020998757  MEOH      1655            0.0000000000
     31976      2348  MEOH      C1            -33.4722187731       17.8289587549      -20.5990792749  MEOH      1656            0.0000000000
     31977      2348  MEOH      DC1           -33.4767343988       17.8429180371      -20.5913082520  MEOH      1656            0.0000000000
     31978      2348  MEOH      O1            -32.4407142902       18.3717391641      -19.7726919634  MEOH      1656            0.0000000000
     31979      2348  MEOH      DO1           -32.4412254829       18.3849868379      -19.7711030049  MEOH      1656            0.0000000000
     31980      2348  MEOH      HO1           -32.2669960983       19.2773402319      -20.0737047487  MEOH      1656            0.0000000000
     31981      2348  MEOH      HO2           -32.6842837616       18.1789122562      -18.8537840811  MEOH      1656            0.0000000000
     31982      2348  MEOH      H1A           -33.5585769040       16.7386610596      -20.4038506684  MEOH      1656            0.0000000000
     31983      2348  MEOH      H1B           -33.2312406344       17.9679753111      -21.6746837259  MEOH      1656            0.0000000000
     31984      2348  MEOH      H1C           -34.4409299044       18.3248922777      -20.3755402728  MEOH      1656            0.0000000000
     31985      2348  MEOH      LP1A          -32.5811633209       18.5253867108      -19.4913265406  MEOH      1656            0.0000000000
     31986      2348  MEOH      LP1B          -32.1269350089       18.2991822410      -19.9097250089  MEOH      1656            0.0000000000
     31987      2349  MEOH      C1             22.4441027842       -4.0523091149       19.6952899606  MEOH      1657            0.0000000000
     31988      2349  MEOH      DC1            22.4322426976       -4.0595140153       19.6816933319  MEOH      1657            0.0000000000
     31989      2349  MEOH      O1             23.3529870343       -4.7333310828       20.5553543000  MEOH      1657            0.0000000000
     31990      2349  MEOH      DO1            23.3508327126       -4.7323309124       20.5412595973  MEOH      1657            0.0000000000
     31991      2349  MEOH      HO1            23.7687530420       -5.4641654594       20.0717017999  MEOH      1657            0.0000000000
     31992      2349  MEOH      HO2            23.8880447740       -4.0388357094       20.9704318740  MEOH      1657            0.0000000000
     31993      2349  MEOH      H1A            21.8226830078       -3.3641810718       20.3073669647  MEOH      1657            0.0000000000
     31994      2349  MEOH      H1B            21.7789450989       -4.7756911571       19.1770191099  MEOH      1657            0.0000000000
     31995      2349  MEOH      H1C            23.0007741720       -3.4419906214       18.9523570536  MEOH      1657            0.0000000000
     31996      2349  MEOH      LP1A           23.6697595056       -4.5857859703       20.5357165506  MEOH      1657            0.0000000000
     31997      2349  MEOH      LP1B           23.1863211216       -4.9880881809       20.7280427318  MEOH      1657            0.0000000000
     31998      2350  MEOH      C1             24.6403672805      -26.6780797888        8.3718688540  MEOH      1658            0.0000000000
     31999      2350  MEOH      DC1            24.6435028069      -26.6760913131        8.3700663263  MEOH      1658            0.0000000000
     32000      2350  MEOH      O1             25.9550404454      -26.2981026180        8.7827404441  MEOH      1658            0.0000000000
     32001      2350  MEOH      DO1            25.9517777073      -26.2818154749        8.7938060575  MEOH      1658            0.0000000000
     32002      2350  MEOH      HO1            26.3173256810      -27.0530812549        9.2722878545  MEOH      1658            0.0000000000
     32003      2350  MEOH      HO2            26.3989025177      -26.0101750227        7.9697311203  MEOH      1658            0.0000000000
     32004      2350  MEOH      H1A            24.1928757123      -25.8513282738        7.7797926521  MEOH      1658            0.0000000000
     32005      2350  MEOH      H1B            24.0036008870      -26.8791320892        9.2598032744  MEOH      1658            0.0000000000
     32006      2350  MEOH      H1C            24.6848439091      -27.5873328891        7.7350002415  MEOH      1658            0.0000000000
     32007      2350  MEOH      LP1A           26.1872075272      -26.3835067729        8.5351428342  MEOH      1658            0.0000000000
     32008      2350  MEOH      LP1B           25.9417924006      -26.1388206372        9.0941143992  MEOH      1658            0.0000000000
     32009      2351  MEOH      C1             13.1209588546        6.3167955416       20.5972432695  MEOH      1659            0.0000000000
     32010      2351  MEOH      DC1            13.1242855848        6.3125382183       20.5923836781  MEOH      1659            0.0000000000
     32011      2351  MEOH      O1             13.7678330422        5.2205370609       21.2480765328  MEOH      1659            0.0000000000
     32012      2351  MEOH      DO1            13.7699417843        5.2180872623       21.2470712284  MEOH      1659            0.0000000000
     32013      2351  MEOH      HO1            13.5485714704        4.4125793669       20.7581492644  MEOH      1659            0.0000000000
     32014      2351  MEOH      HO2            14.6900195005        5.4900250337       21.3816743195  MEOH      1659            0.0000000000
     32015      2351  MEOH      H1A            13.2331409364        7.2327741279       21.2158864716  MEOH      1659            0.0000000000
     32016      2351  MEOH      H1B            12.0384068473        6.1022836328       20.4692323586  MEOH      1659            0.0000000000
     32017      2351  MEOH      H1C            13.5860133961        6.4988005639       19.6048121911  MEOH      1659            0.0000000000
     32018      2351  MEOH      LP1A           14.0890007715        5.1757513024       21.1163741201  MEOH      1659            0.0000000000
     32019      2351  MEOH      LP1B           13.5593941428        5.0889468250       21.4965463197  MEOH      1659            0.0000000000
     32020      2352  MEOH      C1            -22.6437181165        9.7885283008      -26.5610390174  MEOH      1660            0.0000000000
     32021      2352  MEOH      DC1           -22.6462931904        9.7831438239      -26.5568019448  MEOH      1660            0.0000000000
     32022      2352  MEOH      O1            -22.0396757402        8.8019920760      -27.3946314904  MEOH      1660            0.0000000000
     32023      2352  MEOH      DO1           -22.0490711120        8.7951098596      -27.3807864886  MEOH      1660            0.0000000000
     32024      2352  MEOH      HO1           -22.7401161710        8.3329061711      -27.8744664794  MEOH      1660            0.0000000000
     32025      2352  MEOH      HO2           -21.3738710726        9.2863412179      -27.9074765488  MEOH      1660            0.0000000000
     32026      2352  MEOH      H1A           -21.8563048404       10.3066204745      -25.9729218248  MEOH      1660            0.0000000000
     32027      2352  MEOH      H1B           -23.3779457031        9.3205136511      -25.8709715276  MEOH      1660            0.0000000000
     32028      2352  MEOH      H1C           -23.1568979673       10.5544701787      -27.1809587550  MEOH      1660            0.0000000000
     32029      2352  MEOH      LP1A          -21.9631251943        8.9398687225      -27.7070895584  MEOH      1660            0.0000000000
     32030      2352  MEOH      LP1B          -22.0044265787        8.5016565228      -27.2184042164  MEOH      1660            0.0000000000
     32031      2353  MEOH      C1             14.5517385471       21.2297950793       20.9626779392  MEOH      1661            0.0000000000
     32032      2353  MEOH      DC1            14.5542317496       21.2200999776       20.9528485084  MEOH      1661            0.0000000000
     32033      2353  MEOH      O1             13.9335806523       19.9621403929       20.7549571503  MEOH      1661            0.0000000000
     32034      2353  MEOH      DO1            13.9354353726       19.9602423943       20.7446475905  MEOH      1661            0.0000000000
     32035      2353  MEOH      HO1            13.8177959778       19.5610883096       21.6305433176  MEOH      1661            0.0000000000
     32036      2353  MEOH      HO2            13.1499056771       20.1464533346       20.2138635606  MEOH      1661            0.0000000000
     32037      2353  MEOH      H1A            14.7276609427       21.7237357105       19.9831908468  MEOH      1661            0.0000000000
     32038      2353  MEOH      H1B            15.5227561238       21.1207566541       21.4914089554  MEOH      1661            0.0000000000
     32039      2353  MEOH      H1C            13.8908722592       21.8662563411       21.5891712062  MEOH      1661            0.0000000000
     32040      2353  MEOH      LP1A           13.5853281995       19.9970142613       20.7569677412  MEOH      1661            0.0000000000
     32041      2353  MEOH      LP1B           14.1779515334       19.7162588288       20.7067375606  MEOH      1661            0.0000000000
     32042      2354  MEOH      C1             -7.0907000115       11.6505941037      -10.7797967503  MEOH      1662            0.0000000000
     32043      2354  MEOH      DC1            -7.0986189577       11.6567183288      -10.7876121686  MEOH      1662            0.0000000000
     32044      2354  MEOH      O1             -6.8388318300       10.4440164323      -11.5021901291  MEOH      1662            0.0000000000
     32045      2354  MEOH      DO1            -6.8414041205       10.4444423948      -11.5042945698  MEOH      1662            0.0000000000
     32046      2354  MEOH      HO1            -5.9033157443       10.2298695522      -11.3612973789  MEOH      1662            0.0000000000
     32047      2354  MEOH      HO2            -7.5259261660        9.8188813491      -11.2228918981  MEOH      1662            0.0000000000
     32048      2354  MEOH      H1A            -8.1542445434       11.9454665205      -10.9072498286  MEOH      1662            0.0000000000
     32049      2354  MEOH      H1B            -6.4295460052       12.4606153028      -11.1553790142  MEOH      1662            0.0000000000
     32050      2354  MEOH      H1C            -6.8921348251       11.5070046044       -9.6961570852  MEOH      1662            0.0000000000
     32051      2354  MEOH      LP1A           -6.9035337959       10.1668291761      -11.2985215733  MEOH      1662            0.0000000000
     32052      2354  MEOH      LP1B           -6.7428690426       10.5187899133      -11.8303670174  MEOH      1662            0.0000000000
     32053      2355  MEOH      C1             -8.1492817993       23.7921441269      -36.2812111513  MEOH      1663            0.0000000000
     32054      2355  MEOH      DC1            -8.1527768864       23.7861606792      -36.2767736050  MEOH      1663            0.0000000000
     32055      2355  MEOH      O1             -8.9194795251       24.6835354405      -37.0759665886  MEOH      1663            0.0000000000
     32056      2355  MEOH      DO1            -8.9280148708       24.6677132641      -37.0817638593  MEOH      1663            0.0000000000
     32057      2355  MEOH      HO1            -9.5400225081       24.1526399123      -37.5993940864  MEOH      1663            0.0000000000
     32058      2355  MEOH      HO2            -9.2626256409       25.3577805024      -36.4688880601  MEOH      1663            0.0000000000
     32059      2355  MEOH      H1A            -7.2757694104       24.3514974851      -35.8831898867  MEOH      1663            0.0000000000
     32060      2355  MEOH      H1B            -7.7935058876       22.9442734703      -36.9047974340  MEOH      1663            0.0000000000
     32061      2355  MEOH      H1C            -8.7597760786       23.4110350369      -35.4348225898  MEOH      1663            0.0000000000
     32062      2355  MEOH      LP1A           -9.2040860707       24.7856328469      -36.8996848998  MEOH      1663            0.0000000000
     32063      2355  MEOH      LP1B           -8.7589143810       24.7405213756      -37.3816975777  MEOH      1663            0.0000000000
     32064      2356  MEOH      C1             35.9851745384      -33.5982379504       10.8547177476  MEOH      1664            0.0000000000
     32065      2356  MEOH      DC1            36.0044502615      -33.6094579242       10.8554996520  MEOH      1664            0.0000000000
     32066      2356  MEOH      O1             35.4372726432      -32.5387007413       11.6395286062  MEOH      1664            0.0000000000
     32067      2356  MEOH      DO1            35.4565392235      -32.5405108237       11.6353424569  MEOH      1664            0.0000000000
     32068      2356  MEOH      HO1            36.1388541937      -31.9072002725       11.8628903896  MEOH      1664            0.0000000000
     32069      2356  MEOH      HO2            34.6488713531      -32.2384035503       11.1608376800  MEOH      1664            0.0000000000
     32070      2356  MEOH      H1A            35.1875266639      -34.3430455001       10.6465337369  MEOH      1664            0.0000000000
     32071      2356  MEOH      H1B            36.8081213379      -34.0947965455       11.4119512073  MEOH      1664            0.0000000000
     32072      2356  MEOH      H1C            36.3560350405      -33.1992725034        9.8864150776  MEOH      1664            0.0000000000
     32073      2356  MEOH      LP1A           35.3209788994      -32.2829301511       11.4308250597  MEOH      1664            0.0000000000
     32074      2356  MEOH      LP1B           35.4513429096      -32.6217374137       11.9792445738  MEOH      1664            0.0000000000
     32075      2357  MEOH      C1              7.3630327957      -24.3204612349        1.2701142728  MEOH      1665            0.0000000000
     32076      2357  MEOH      DC1             7.3701576910      -24.3175231630        1.2706004450  MEOH      1665            0.0000000000
     32077      2357  MEOH      O1              8.2561396931      -23.2721661981        1.6594351610  MEOH      1665            0.0000000000
     32078      2357  MEOH      DO1             8.2603108424      -23.2706840058        1.6571358532  MEOH      1665            0.0000000000
     32079      2357  MEOH      HO1             8.5872594684      -22.8537497671        0.8493812217  MEOH      1665            0.0000000000
     32080      2357  MEOH      HO2             7.7745675934      -22.7420769949        2.3136474737  MEOH      1665            0.0000000000
     32081      2357  MEOH      H1A             7.0134299815      -24.8635985075        2.1740505402  MEOH      1665            0.0000000000
     32082      2357  MEOH      H1B             7.8825628092      -25.0425986050        0.6045865232  MEOH      1665            0.0000000000
     32083      2357  MEOH      H1C             6.4794893368      -23.8997743613        0.7440966770  MEOH      1665            0.0000000000
     32084      2357  MEOH      LP1A            8.0784507747      -22.9739559780        1.7041264685  MEOH      1665            0.0000000000
     32085      2357  MEOH      LP1B            8.5813942128      -23.3975389507        1.6909180180  MEOH      1665            0.0000000000
     32086      2358  MEOH      C1              6.6062805688        5.6023740781       24.3259763476  MEOH      1666            0.0000000000
     32087      2358  MEOH      DC1             6.6217307036        5.6085973245       24.3320680146  MEOH      1666            0.0000000000
     32088      2358  MEOH      O1              6.1072000923        4.9697524766       25.5058348673  MEOH      1666            0.0000000000
     32089      2358  MEOH      DO1             6.1251682326        4.9730598016       25.5042708655  MEOH      1666            0.0000000000
     32090      2358  MEOH      HO1             6.7975335347        4.8803183496       26.1813652339  MEOH      1666            0.0000000000
     32091      2358  MEOH      HO2             5.2621026466        5.3960242494       25.7179732253  MEOH      1666            0.0000000000
     32092      2358  MEOH      H1A             5.7984737162        5.6467625637       23.5645311744  MEOH      1666            0.0000000000
     32093      2358  MEOH      H1B             7.4558294004        5.0268704370       23.9000851153  MEOH      1666            0.0000000000
     32094      2358  MEOH      H1C             6.9189071116        6.6464226063       24.5417269375  MEOH      1666            0.0000000000
     32095      2358  MEOH      LP1A            5.9780972831        5.2101110880       25.7250612402  MEOH      1666            0.0000000000
     32096      2358  MEOH      LP1B            6.1423052856        4.6225174840       25.4794628114  MEOH      1666            0.0000000000
     32097      2359  MEOH      C1              9.6489187065      -12.9050573001       -1.3373526109  MEOH      1667            0.0000000000
     32098      2359  MEOH      DC1             9.6601201249      -12.9047642190       -1.3291836955  MEOH      1667            0.0000000000
     32099      2359  MEOH      O1              9.4670011513      -12.1793452517       -0.1158215794  MEOH      1667            0.0000000000
     32100      2359  MEOH      DO1             9.4804631699      -12.1719169766       -0.1145782125  MEOH      1667            0.0000000000
     32101      2359  MEOH      HO1             8.5247604766      -12.2311874108        0.1086665084  MEOH      1667            0.0000000000
     32102      2359  MEOH      HO2            10.1360561547      -12.5203913976        0.4981433459  MEOH      1667            0.0000000000
     32103      2359  MEOH      H1A            10.6985773963      -12.8000040459       -1.6859231931  MEOH      1667            0.0000000000
     32104      2359  MEOH      H1B             8.9678578945      -12.5086011168       -2.1204871244  MEOH      1667            0.0000000000
     32105      2359  MEOH      H1C             9.4293534820      -13.9832267926       -1.1835258979  MEOH      1667            0.0000000000
     32106      2359  MEOH      LP1A            9.5134206158      -12.3923347829        0.1580044473  MEOH      1667            0.0000000000
     32107      2359  MEOH      LP1B            9.4013943475      -11.8426339237       -0.1852566493  MEOH      1667            0.0000000000
     32108      2360  MEOH      C1              1.8721067283       16.3447743125       19.0872590251  MEOH      1668            0.0000000000
     32109      2360  MEOH      DC1             1.8750109028       16.3563075052       19.0870907515  MEOH      1668            0.0000000000
     32110      2360  MEOH      O1              3.1474077066       16.7023558029       18.5512993832  MEOH      1668            0.0000000000
     32111      2360  MEOH      DO1             3.1524316338       16.7228173253       18.5481022491  MEOH      1668            0.0000000000
     32112      2360  MEOH      HO1             3.7101769625       16.8807685108       19.3209484398  MEOH      1668            0.0000000000
     32113      2360  MEOH      HO2             3.3832350454       15.9634016832       17.9688628834  MEOH      1668            0.0000000000
     32114      2360  MEOH      H1A             1.1671267097       16.0926230436       18.2664399760  MEOH      1668            0.0000000000
     32115      2360  MEOH      H1B             1.4636865411       17.2022780804       19.6636280378  MEOH      1668            0.0000000000
     32116      2360  MEOH      H1C             1.9596445345       15.4649186854       19.7599493025  MEOH      1668            0.0000000000
     32117      2360  MEOH      LP1A            3.3434955383       16.4157629408       18.5075490274  MEOH      1668            0.0000000000
     32118      2360  MEOH      LP1B            3.1609315281       17.0474685022       18.4946043125  MEOH      1668            0.0000000000
     32119      2361  MEOH      C1             -6.9817085992      -31.4204166214       -6.8744023821  MEOH      1669            0.0000000000
     32120      2361  MEOH      DC1            -6.9857325432      -31.4143408636       -6.8812322465  MEOH      1669            0.0000000000
     32121      2361  MEOH      O1             -7.3862844754      -32.4365371474       -5.9613225167  MEOH      1669            0.0000000000
     32122      2361  MEOH      DO1            -7.3804910237      -32.4322701076       -5.9639505650  MEOH      1669            0.0000000000
     32123      2361  MEOH      HO1            -7.5750860960      -32.0168436440       -5.1074423658  MEOH      1669            0.0000000000
     32124      2361  MEOH      HO2            -8.0947964980      -32.9261306374       -6.4076507911  MEOH      1669            0.0000000000
     32125      2361  MEOH      H1A            -6.7402392949      -31.8900015796       -7.8519009981  MEOH      1669            0.0000000000
     32126      2361  MEOH      H1B            -6.0743814194      -30.9084621761       -6.4884217666  MEOH      1669            0.0000000000
     32127      2361  MEOH      H1C            -7.8035808992      -30.6848676751       -7.0078739897  MEOH      1669            0.0000000000
     32128      2361  MEOH      LP1A           -7.7327848571      -32.4825360397       -5.9792553745  MEOH      1669            0.0000000000
     32129      2361  MEOH      LP1B           -7.1064842279      -32.5691907561       -5.7981819590  MEOH      1669            0.0000000000
     32130      2362  MEOH      C1              2.8754809225       -2.3521272508      -20.4140715720  MEOH      1670            0.0000000000
     32131      2362  MEOH      DC1             2.8762519710       -2.3533309065      -20.4139894281  MEOH      1670            0.0000000000
     32132      2362  MEOH      O1              2.6943931464       -2.0601799460      -21.7994241969  MEOH      1670            0.0000000000
     32133      2362  MEOH      DO1             2.7004002606       -2.0536938484      -21.8011045505  MEOH      1670            0.0000000000
     32134      2362  MEOH      HO1             1.8256354903       -1.6389111096      -21.8926588596  MEOH      1670            0.0000000000
     32135      2362  MEOH      HO2             3.5109141574       -1.6290955518      -22.0966777661  MEOH      1670            0.0000000000
     32136      2362  MEOH      H1A             3.7068328425       -3.0777664748      -20.2851425126  MEOH      1670            0.0000000000
     32137      2362  MEOH      H1B             1.9482307198       -2.8007267525      -19.9977945626  MEOH      1670            0.0000000000
     32138      2362  MEOH      H1C             3.0985095924       -1.4270529469      -19.8406461223  MEOH      1670            0.0000000000
     32139      2362  MEOH      LP1A            2.8227022042       -1.7428903131      -21.8726640397  MEOH      1670            0.0000000000
     32140      2362  MEOH      LP1B            2.5460211916       -2.3329912922      -21.9608544679  MEOH      1670            0.0000000000
     32141      2363  MEOH      C1            -17.3232299374       -0.5939849360      -12.3411853426  MEOH      1671            0.0000000000
     32142      2363  MEOH      DC1           -17.3269345262       -0.5950572719      -12.3381132449  MEOH      1671            0.0000000000
     32143      2363  MEOH      O1            -18.7509849990       -0.5828042478      -12.3274657313  MEOH      1671            0.0000000000
     32144      2363  MEOH      DO1           -18.7544385277       -0.5898210900      -12.3229965539  MEOH      1671            0.0000000000
     32145      2363  MEOH      HO1           -19.0393842678        0.2426819420      -11.9075866858  MEOH      1671            0.0000000000
     32146      2363  MEOH      HO2           -19.0251518449       -0.7970228385      -13.2329175169  MEOH      1671            0.0000000000
     32147      2363  MEOH      H1A           -16.9410958475       -1.5558664269      -12.7450151767  MEOH      1671            0.0000000000
     32148      2363  MEOH      H1B           -16.9365255054       -0.4401315132      -11.3110834991  MEOH      1671            0.0000000000
     32149      2363  MEOH      H1C           -16.9501277041        0.2323501831      -12.9832803472  MEOH      1671            0.0000000000
     32150      2363  MEOH      LP1A          -18.8724027140       -0.4383620712      -12.6222439464  MEOH      1671            0.0000000000
     32151      2363  MEOH      LP1B          -18.8690930315       -0.7356118439      -12.0355747735  MEOH      1671            0.0000000000
     32152      2364  MEOH      C1              5.2965525780       33.5713309361      -12.1520300995  MEOH      1672            0.0000000000
     32153      2364  MEOH      DC1             5.3020902281       33.5880469031      -12.1595492760  MEOH      1672            0.0000000000
     32154      2364  MEOH      O1              6.7007032069       33.5015570855      -12.4193419524  MEOH      1672            0.0000000000
     32155      2364  MEOH      DO1             6.7052867153       33.5200810697      -12.4199617471  MEOH      1672            0.0000000000
     32156      2364  MEOH      HO1             6.8578112111       33.7422886629      -13.3457680872  MEOH      1672            0.0000000000
     32157      2364  MEOH      HO2             7.1520655656       33.9294073783      -11.6749521700  MEOH      1672            0.0000000000
     32158      2364  MEOH      H1A             5.0644026428       33.0071266582      -11.2235361894  MEOH      1672            0.0000000000
     32159      2364  MEOH      H1B             4.7231165705       33.1193911217      -12.9894323631  MEOH      1672            0.0000000000
     32160      2364  MEOH      H1C             4.9793075316       34.6275554292      -12.0176187881  MEOH      1672            0.0000000000
     32161      2364  MEOH      LP1A            6.8514260729       33.8094747247      -12.3488483705  MEOH      1672            0.0000000000
     32162      2364  MEOH      LP1B            6.7867984180       33.1787611434      -12.5236990047  MEOH      1672            0.0000000000
     32163      2365  MEOH      C1            -11.5225174662       33.5180363325       31.0909805846  MEOH      1673            0.0000000000
     32164      2365  MEOH      DC1           -11.5180304724       33.5175926962       31.0748986841  MEOH      1673            0.0000000000
     32165      2365  MEOH      O1            -12.7448454523       33.0765540495       30.4952693175  MEOH      1673            0.0000000000
     32166      2365  MEOH      DO1           -12.7513100417       33.0824006127       30.4890838131  MEOH      1673            0.0000000000
     32167      2365  MEOH      HO1           -13.2329853823       32.6317219944       31.2057225900  MEOH      1673            0.0000000000
     32168      2365  MEOH      HO2           -13.1182825317       33.8483469208       30.0416389488  MEOH      1673            0.0000000000
     32169      2365  MEOH      H1A           -10.8553244823       33.9546124273       30.3173037553  MEOH      1673            0.0000000000
     32170      2365  MEOH      H1B           -11.0014311198       32.6643114967       31.5746580848  MEOH      1673            0.0000000000
     32171      2365  MEOH      H1C           -11.7407437072       34.2758610914       31.8735404509  MEOH      1673            0.0000000000
     32172      2365  MEOH      LP1A          -12.9879259823       33.3270405059       30.5211225783  MEOH      1673            0.0000000000
     32173      2365  MEOH      LP1B          -12.7031836552       32.7566162764       30.3596075469  MEOH      1673            0.0000000000
     32174      2366  MEOH      C1            -22.7514361609       -9.0036598817      -33.0341195951  MEOH      1674            0.0000000000
     32175      2366  MEOH      DC1           -22.7351994333       -9.0206491424      -33.0361098847  MEOH      1674            0.0000000000
     32176      2366  MEOH      O1            -22.8343281538      -10.4184102554      -32.8446877558  MEOH      1674            0.0000000000
     32177      2366  MEOH      DO1           -22.8191670342      -10.4302223425      -32.8462508937  MEOH      1674            0.0000000000
     32178      2366  MEOH      HO1           -23.2687698756      -10.7755766311      -33.6349994478  MEOH      1674            0.0000000000
     32179      2366  MEOH      HO2           -21.9485856174      -10.7125750120      -32.5804392812  MEOH      1674            0.0000000000
     32180      2366  MEOH      H1A           -22.4483722574       -8.5087269488      -32.0867470902  MEOH      1674            0.0000000000
     32181      2366  MEOH      H1B           -23.7460084702       -8.6017862612      -33.3233332091  MEOH      1674            0.0000000000
     32182      2366  MEOH      H1C           -22.0097022561       -8.7487043077      -33.8209801107  MEOH      1674            0.0000000000
     32183      2366  MEOH      LP1A          -22.5456089544      -10.5728603902      -32.9683258559  MEOH      1674            0.0000000000
     32184      2366  MEOH      LP1B          -23.1317636514      -10.4997944457      -32.6791319093  MEOH      1674            0.0000000000
     32185      2367  MEOH      C1             35.9044424752       20.1940558585       -4.6153046267  MEOH      1675            0.0000000000
     32186      2367  MEOH      DC1            35.8980906894       20.2068069835       -4.6156373136  MEOH      1675            0.0000000000
     32187      2367  MEOH      O1             35.8020931209       21.1333226765       -3.5402406461  MEOH      1675            0.0000000000
     32188      2367  MEOH      DO1            35.7912941588       21.1497831220       -3.5474331252  MEOH      1675            0.0000000000
     32189      2367  MEOH      HO1            35.0126080584       20.8772779888       -3.0381903955  MEOH      1675            0.0000000000
     32190      2367  MEOH      HO2            36.6599906521       21.1047159676       -3.0884735790  MEOH      1675            0.0000000000
     32191      2367  MEOH      H1A            36.8092325508       20.3929404450       -5.2285915419  MEOH      1675            0.0000000000
     32192      2367  MEOH      H1B            35.0193519137       20.2720843819       -5.2822733288  MEOH      1675            0.0000000000
     32193      2367  MEOH      H1C            36.0001507881       19.1603842195       -4.2194715024  MEOH      1675            0.0000000000
     32194      2367  MEOH      LP1A           35.9821956951       21.0181601563       -3.2631113320  MEOH      1675            0.0000000000
     32195      2367  MEOH      LP1B           35.6143508295       21.4108977351       -3.6412600447  MEOH      1675            0.0000000000
     32196      2368  MEOH      C1            -20.1899055573       25.7339218000      -10.9034915246  MEOH      1676            0.0000000000
     32197      2368  MEOH      DC1           -20.2112567808       25.7293061442      -10.9039790260  MEOH      1676            0.0000000000
     32198      2368  MEOH      O1            -20.8191012980       24.4939447022      -10.5852350404  MEOH      1676            0.0000000000
     32199      2368  MEOH      DO1           -20.8405390243       24.4940545999      -10.5783308084  MEOH      1676            0.0000000000
     32200      2368  MEOH      HO1           -20.9312459668       24.0342888570      -11.4320172304  MEOH      1676            0.0000000000
     32201      2368  MEOH      HO2           -20.2541823665       24.0926063853       -9.9064904953  MEOH      1676            0.0000000000
     32202      2368  MEOH      H1A           -19.9577095170       26.2960205542       -9.9737329595  MEOH      1676            0.0000000000
     32203      2368  MEOH      H1B           -20.8671512682       26.3386314587      -11.5437926077  MEOH      1676            0.0000000000
     32204      2368  MEOH      H1C           -19.2391996169       25.5540759453      -11.4495086341  MEOH      1676            0.0000000000
     32205      2368  MEOH      LP1A          -20.5767982627       24.2510755549      -10.5159254717  MEOH      1676            0.0000000000
     32206      2368  MEOH      LP1B          -21.1670408793       24.5315641484      -10.5900125977  MEOH      1676            0.0000000000
     32207      2369  MEOH      C1             24.0885902213      -15.7366725545        4.7509577908  MEOH      1677            0.0000000000
     32208      2369  MEOH      DC1            24.0841392709      -15.7370607829        4.7495054639  MEOH      1677            0.0000000000
     32209      2369  MEOH      O1             25.4591479191      -16.0931455242        4.9248157830  MEOH      1677            0.0000000000
     32210      2369  MEOH      DO1            25.4562685831      -16.0951589251        4.9288951904  MEOH      1677            0.0000000000
     32211      2369  MEOH      HO1            25.7822292495      -16.4058938820        4.0653351732  MEOH      1677            0.0000000000
     32212      2369  MEOH      HO2            25.8722058422      -15.3161065452        5.3328520302  MEOH      1677            0.0000000000
     32213      2369  MEOH      H1A            23.6772313010      -15.3317255830        5.7002326661  MEOH      1677            0.0000000000
     32214      2369  MEOH      H1B            23.4881850658      -16.6225053688        4.4524031457  MEOH      1677            0.0000000000
     32215      2369  MEOH      H1C            24.0168132910      -14.9640914345        3.9557927224  MEOH      1677            0.0000000000
     32216      2369  MEOH      LP1A           25.6634631688      -15.8149048149        4.8670456661  MEOH      1677            0.0000000000
     32217      2369  MEOH      LP1B           25.4841860263      -16.4282088333        5.0228243135  MEOH      1677            0.0000000000
     32218      2370  MEOH      C1             -5.7357107078      -28.9490988654       -0.3284527958  MEOH      1678            0.0000000000
     32219      2370  MEOH      DC1            -5.7394056799      -28.9414681608       -0.3328010061  MEOH      1678            0.0000000000
     32220      2370  MEOH      O1             -6.5701646275      -29.6590226803        0.5832206103  MEOH      1678            0.0000000000
     32221      2370  MEOH      DO1            -6.5752617720      -29.6423466611        0.5764567122  MEOH      1678            0.0000000000
     32222      2370  MEOH      HO1            -7.1450210136      -30.2551421817        0.0781644991  MEOH      1678            0.0000000000
     32223      2370  MEOH      HO2            -5.9626157315      -30.0443443616        1.2338445736  MEOH      1678            0.0000000000
     32224      2370  MEOH      H1A            -5.0556550101      -28.2890284324        0.2513336063  MEOH      1678            0.0000000000
     32225      2370  MEOH      H1B            -6.3586025688      -28.3350549936       -1.0134906436  MEOH      1678            0.0000000000
     32226      2370  MEOH      H1C            -5.1100427147      -29.6494072234       -0.9221099086  MEOH      1678            0.0000000000
     32227      2370  MEOH      LP1A           -6.4113340058      -29.9532727051        0.6866118892  MEOH      1678            0.0000000000
     32228      2370  MEOH      LP1B           -6.8642524038      -29.4785073604        0.6417577699  MEOH      1678            0.0000000000
     32229      2371  MEOH      C1             35.3309909838       34.7861057602       -5.6628996806  MEOH      1679            0.0000000000
     32230      2371  MEOH      DC1            35.3249235550       34.7790243623       -5.6632543471  MEOH      1679            0.0000000000
     32231      2371  MEOH      O1             33.9542390250       35.0594491974       -5.9427330325  MEOH      1679            0.0000000000
     32232      2371  MEOH      DO1            33.9445804672       35.0400048411       -5.9412052431  MEOH      1679            0.0000000000
     32233      2371  MEOH      HO1            33.4792984803       35.0045162488       -5.0987461546  MEOH      1679            0.0000000000
     32234      2371  MEOH      HO2            33.9672280025       35.9213542696       -6.3875374100  MEOH      1679            0.0000000000
     32235      2371  MEOH      H1A            35.9403955726       34.9732411682       -6.5728048330  MEOH      1679            0.0000000000
     32236      2371  MEOH      H1B            35.4514668755       33.7267222831       -5.3506286281  MEOH      1679            0.0000000000
     32237      2371  MEOH      H1C            35.7006990611       35.4620459188       -4.8624361648  MEOH      1679            0.0000000000
     32238      2371  MEOH      LP1A           33.8936475259       35.4034690289       -5.9208463749  MEOH      1679            0.0000000000
     32239      2371  MEOH      LP1B           33.7870587576       34.7624971396       -6.0225467754  MEOH      1679            0.0000000000
     32240      2372  MEOH      C1            -10.5524041553        3.6547986094      -21.9351606868  MEOH      1680            0.0000000000
     32241      2372  MEOH      DC1           -10.5474704002        3.6560989816      -21.9483379928  MEOH      1680            0.0000000000
     32242      2372  MEOH      O1             -9.3367307577        4.0048356919      -22.5938956675  MEOH      1680            0.0000000000
     32243      2372  MEOH      DO1            -9.3276407266        3.9865339141      -22.6026466696  MEOH      1680            0.0000000000
     32244      2372  MEOH      HO1            -9.2376362077        3.4003279201      -23.3459931506  MEOH      1680            0.0000000000
     32245      2372  MEOH      HO2            -9.3979664983        4.9601044471      -22.7507771203  MEOH      1680            0.0000000000
     32246      2372  MEOH      H1A           -10.7300871096        4.3240793299      -21.0663608911  MEOH      1680            0.0000000000
     32247      2372  MEOH      H1B           -10.4806482336        2.6037297837      -21.5824194025  MEOH      1680            0.0000000000
     32248      2372  MEOH      H1C           -11.4122354002        3.7332117802      -22.6343477905  MEOH      1680            0.0000000000
     32249      2372  MEOH      LP1A           -9.3982191950        4.2493991000      -22.8366051884  MEOH      1680            0.0000000000
     32250      2372  MEOH      LP1B           -9.0694191545        3.8273703301      -22.4540723787  MEOH      1680            0.0000000000
     32251      2373  MEOH      C1             -3.1307301729       14.2069715167      -30.2151212644  MEOH      1681            0.0000000000
     32252      2373  MEOH      DC1            -3.1400467166       14.2195412449      -30.1900864238  MEOH      1681            0.0000000000
     32253      2373  MEOH      O1             -3.1508137305       15.3461560204      -29.3511421313  MEOH      1681            0.0000000000
     32254      2373  MEOH      DO1            -3.1625706943       15.3564368731      -29.3348695562  MEOH      1681            0.0000000000
     32255      2373  MEOH      HO1            -3.0635610514       15.0052332858      -28.4472291604  MEOH      1681            0.0000000000
     32256      2373  MEOH      HO2            -2.4652617478       15.9354792528      -29.7027336672  MEOH      1681            0.0000000000
     32257      2373  MEOH      H1A            -3.3622947649       14.5053911838      -31.2599392121  MEOH      1681            0.0000000000
     32258      2373  MEOH      H1B            -3.8722778931       13.4484959535      -29.8847535912  MEOH      1681            0.0000000000
     32259      2373  MEOH      H1C            -2.1198917407       13.7459784126      -30.2116540061  MEOH      1681            0.0000000000
     32260      2373  MEOH      LP1A           -2.8258260102       15.4680845720      -29.3062376773  MEOH      1681            0.0000000000
     32261      2373  MEOH      LP1B           -3.4802877317       15.4218575560      -29.2604990950  MEOH      1681            0.0000000000
     32262      2374  MEOH      C1              3.8101867021      -23.0880658836       18.2260799131  MEOH      1682            0.0000000000
     32263      2374  MEOH      DC1             3.7934965968      -23.0901516540       18.2316739726  MEOH      1682            0.0000000000
     32264      2374  MEOH      O1              4.0452557892      -23.7909193827       19.4467426768  MEOH      1682            0.0000000000
     32265      2374  MEOH      DO1             4.0240402948      -23.7839880166       19.4599859045  MEOH      1682            0.0000000000
     32266      2374  MEOH      HO1             3.9703598025      -24.7344321952       19.2344359087  MEOH      1682            0.0000000000
     32267      2374  MEOH      HO2             4.9093920174      -23.4703689226       19.7490934375  MEOH      1682            0.0000000000
     32268      2374  MEOH      H1A             3.9683448180      -21.9974989938       18.3673982448  MEOH      1682            0.0000000000
     32269      2374  MEOH      H1B             2.7690356638      -23.2443348852       17.8712482418  MEOH      1682            0.0000000000
     32270      2374  MEOH      H1C             4.5160087576      -23.4397888698       17.4435026537  MEOH      1682            0.0000000000
     32271      2374  MEOH      LP1A            4.3873011128      -23.8551069751       19.4839575875  MEOH      1682            0.0000000000
     32272      2374  MEOH      LP1B            3.7440924603      -23.8345805754       19.6196425019  MEOH      1682            0.0000000000
     32273      2375  MEOH      C1            -36.7648910309        8.4235644148      -22.4250527051  MEOH      1683            0.0000000000
     32274      2375  MEOH      DC1           -36.7629990883        8.4139058299      -22.4278123967  MEOH      1683            0.0000000000
     32275      2375  MEOH      O1            -36.9966695903        7.8817530969      -23.7225651748  MEOH      1683            0.0000000000
     32276      2375  MEOH      DO1           -37.0112441326        7.8900184657      -23.7257805448  MEOH      1683            0.0000000000
     32277      2375  MEOH      HO1           -36.3768400667        8.2922776858      -24.3456068460  MEOH      1683            0.0000000000
     32278      2375  MEOH      HO2           -37.0376986144        6.9188774203      -23.6126240516  MEOH      1683            0.0000000000
     32279      2375  MEOH      H1A           -37.4848261843        7.9882928313      -21.6994129711  MEOH      1683            0.0000000000
     32280      2375  MEOH      H1B           -36.9002127804        9.5262339820      -22.4364039977  MEOH      1683            0.0000000000
     32281      2375  MEOH      H1C           -35.7237140843        8.1899677392      -22.1156918157  MEOH      1683            0.0000000000
     32282      2375  MEOH      LP1A          -36.8018161213        7.5947406732      -23.7689978607  MEOH      1683            0.0000000000
     32283      2375  MEOH      LP1B          -37.2388356400        8.0711379351      -23.8898642705  MEOH      1683            0.0000000000
     32284      2376  MEOH      C1            -28.2891270149      -17.6889937939      -33.5379654511  MEOH      1684            0.0000000000
     32285      2376  MEOH      DC1           -28.2913944155      -17.6902443723      -33.5275511318  MEOH      1684            0.0000000000
     32286      2376  MEOH      O1            -27.3403581046      -16.7615552911      -33.0178840682  MEOH      1684            0.0000000000
     32287      2376  MEOH      DO1           -27.3380503695      -16.7607284291      -33.0133082437  MEOH      1684            0.0000000000
     32288      2376  MEOH      HO1           -26.7011086824      -16.6067879379      -33.7308407596  MEOH      1684            0.0000000000
     32289      2376  MEOH      HO2           -27.8685658826      -16.0210956948      -32.6808141505  MEOH      1684            0.0000000000
     32290      2376  MEOH      H1A           -29.0440740375      -17.9384475563      -32.7619829685  MEOH      1684            0.0000000000
     32291      2376  MEOH      H1B           -27.7715208271      -18.6151352882      -33.8676118801  MEOH      1684            0.0000000000
     32292      2376  MEOH      H1C           -28.8148255179      -17.2429136173      -34.4091569113  MEOH      1684            0.0000000000
     32293      2376  MEOH      LP1A          -27.4469938173      -16.4339490575      -33.0795523782  MEOH      1684            0.0000000000
     32294      2376  MEOH      LP1B          -27.0800130803      -16.9331221835      -32.8588706418  MEOH      1684            0.0000000000
     32295      2377  MEOH      C1             16.9948088144      -26.1343282525      -36.8216426078  MEOH      1685            0.0000000000
     32296      2377  MEOH      DC1            16.9916534565      -26.1281222233      -36.8089354537  MEOH      1685            0.0000000000
     32297      2377  MEOH      O1             15.9240159963      -26.5620070571      -35.9725442090  MEOH      1685            0.0000000000
     32298      2377  MEOH      DO1            15.9219049047      -26.5697795166      -35.9529846074  MEOH      1685            0.0000000000
     32299      2377  MEOH      HO1            15.7146434651      -25.7940783105      -35.4181539278  MEOH      1685            0.0000000000
     32300      2377  MEOH      HO2            15.2320127913      -26.8693697660      -36.5788112537  MEOH      1685            0.0000000000
     32301      2377  MEOH      H1A            17.1912258591      -26.9018289064      -37.6005418894  MEOH      1685            0.0000000000
     32302      2377  MEOH      H1B            17.9182433484      -25.9851280585      -36.2222020647  MEOH      1685            0.0000000000
     32303      2377  MEOH      H1C            16.7459863323      -25.1775062105      -37.3284955971  MEOH      1685            0.0000000000
     32304      2377  MEOH      LP1A           15.6163714068      -26.5008682677      -36.1278402328  MEOH      1685            0.0000000000
     32305      2377  MEOH      LP1B           16.0528503020      -26.7050117599      -35.6802235347  MEOH      1685            0.0000000000
     32306      2378  MEOH      C1             22.3635972088       14.9285816082      -36.8101111403  MEOH      1686            0.0000000000
     32307      2378  MEOH      DC1            22.3652072570       14.9344882604      -36.8121977538  MEOH      1686            0.0000000000
     32308      2378  MEOH      O1             21.6535836054       14.7784562938      -35.5835947794  MEOH      1686            0.0000000000
     32309      2378  MEOH      DO1            21.6634833282       14.7887840244      -35.5838243292  MEOH      1686            0.0000000000
     32310      2378  MEOH      HO1            21.6425774901       15.6384946277      -35.1351386168  MEOH      1686            0.0000000000
     32311      2378  MEOH      HO2            20.8158671818       14.3516182676      -35.8222168523  MEOH      1686            0.0000000000
     32312      2378  MEOH      H1A            22.4359257980       13.9466822167      -37.3248568649  MEOH      1686            0.0000000000
     32313      2378  MEOH      H1B            23.3892108337       15.3060936419      -36.6103053425  MEOH      1686            0.0000000000
     32314      2378  MEOH      H1C            21.8222464151       15.6373562063      -37.4726055851  MEOH      1686            0.0000000000
     32315      2378  MEOH      LP1A           21.3122887421       14.8365905931      -35.6349583812  MEOH      1686            0.0000000000
     32316      2378  MEOH      LP1B           21.8738713009       14.6840007774      -35.3285428501  MEOH      1686            0.0000000000
     32317      2379  MEOH      C1              4.7088427655      -12.7301206252        5.4149815635  MEOH      1687            0.0000000000
     32318      2379  MEOH      DC1             4.7276589218      -12.7234239255        5.4071986034  MEOH      1687            0.0000000000
     32319      2379  MEOH      O1              4.2160029318      -14.0200812595        5.7529321595  MEOH      1687            0.0000000000
     32320      2379  MEOH      DO1             4.2240182047      -14.0108939240        5.7560117852  MEOH      1687            0.0000000000
     32321      2379  MEOH      HO1             3.7993103756      -13.9724662254        6.6275750145  MEOH      1687            0.0000000000
     32322      2379  MEOH      HO2             3.7007030719      -14.3189503870        4.9873975103  MEOH      1687            0.0000000000
     32323      2379  MEOH      H1A             5.2190730020      -12.7847509273        4.4295874110  MEOH      1687            0.0000000000
     32324      2379  MEOH      H1B             5.4154481526      -12.3886604158        6.2013877908  MEOH      1687            0.0000000000
     32325      2379  MEOH      H1C             3.8682859418      -12.0088564718        5.3280146275  MEOH      1687            0.0000000000
     32326      2379  MEOH      LP1A            3.8885368343      -14.0577287308        5.6352519874  MEOH      1687            0.0000000000
     32327      2379  MEOH      LP1B            4.4643368390      -14.2037672602        5.9175217206  MEOH      1687            0.0000000000
     32328      2380  MEOH      C1             36.3832391649       -0.1605331998       30.5751098645  MEOH      1688            0.0000000000
     32329      2380  MEOH      DC1            36.3927324709       -0.1521750733       30.5757011937  MEOH      1688            0.0000000000
     32330      2380  MEOH      O1             35.6953297283       -1.3687528868       30.8783136666  MEOH      1688            0.0000000000
     32331      2380  MEOH      DO1            35.7095609199       -1.3677856773       30.8721505083  MEOH      1688            0.0000000000
     32332      2380  MEOH      HO1            35.1017253411       -1.5907608505       30.1439797537  MEOH      1688            0.0000000000
     32333      2380  MEOH      HO2            36.3609129963       -1.9874676672       31.2175642151  MEOH      1688            0.0000000000
     32334      2380  MEOH      H1A            36.9147191536        0.2074864278       31.4786648308  MEOH      1688            0.0000000000
     32335      2380  MEOH      H1B            35.6526946501        0.6085436586       30.2447365934  MEOH      1688            0.0000000000
     32336      2380  MEOH      H1C            37.1215530914       -0.3516626219       29.7672218215  MEOH      1688            0.0000000000
     32337      2380  MEOH      LP1A           35.8810170014       -1.6435361947       30.7664460202  MEOH      1688            0.0000000000
     32338      2380  MEOH      LP1B           35.3994114647       -1.2978588649       31.0512483911  MEOH      1688            0.0000000000
     32339      2381  MEOH      C1             -9.9591663512        2.7046644997       25.2653926819  MEOH      1689            0.0000000000
     32340      2381  MEOH      DC1            -9.9389220263        2.7131484330       25.2639639021  MEOH      1689            0.0000000000
     32341      2381  MEOH      O1            -10.1999627033        2.0762712142       24.0033133740  MEOH      1689            0.0000000000
     32342      2381  MEOH      DO1           -10.1755264521        2.0814732197       24.0001121426  MEOH      1689            0.0000000000
     32343      2381  MEOH      HO1           -11.1466912253        2.1717739462       23.8149405127  MEOH      1689            0.0000000000
     32344      2381  MEOH      HO2            -9.5066446992        2.3830715355       23.3982648568  MEOH      1689            0.0000000000
     32345      2381  MEOH      H1A            -8.9893943753        2.3570041426       25.6813200716  MEOH      1689            0.0000000000
     32346      2381  MEOH      H1B           -10.7676493879        2.4501735610       25.9836618113  MEOH      1689            0.0000000000
     32347      2381  MEOH      H1C            -9.9299123485        3.8082278924       25.1404405249  MEOH      1689            0.0000000000
     32348      2381  MEOH      LP1A          -10.1553386573        2.3072267613       23.7441450314  MEOH      1689            0.0000000000
     32349      2381  MEOH      LP1B          -10.2737678789        1.7374049985       24.0504566014  MEOH      1689            0.0000000000
     32350      2382  MEOH      C1             12.9471914197        8.9871783964       14.3909057243  MEOH      1690            0.0000000000
     32351      2382  MEOH      DC1            12.9421211789        8.9947542448       14.3886471623  MEOH      1690            0.0000000000
     32352      2382  MEOH      O1             13.0008070670        9.4689703037       13.0513226347  MEOH      1690            0.0000000000
     32353      2382  MEOH      DO1            12.9970585741        9.4765233384       13.0603621928  MEOH      1690            0.0000000000
     32354      2382  MEOH      HO1            12.2545785874       10.0659524409       12.8850235545  MEOH      1690            0.0000000000
     32355      2382  MEOH      HO2            13.9151965034        9.7486498930       12.8883156210  MEOH      1690            0.0000000000
     32356      2382  MEOH      H1A            13.6807090097        8.1623885434       14.5173756604  MEOH      1690            0.0000000000
     32357      2382  MEOH      H1B            11.9316050699        8.5908803614       14.6050394085  MEOH      1690            0.0000000000
     32358      2382  MEOH      H1C            13.1933783472        9.8027499282       15.1040368997  MEOH      1690            0.0000000000
     32359      2382  MEOH      LP1A           13.1922027985        9.7616491503       13.0369432502  MEOH      1690            0.0000000000
     32360      2382  MEOH      LP1B           12.8279707499        9.2511515972       12.8387606000  MEOH      1690            0.0000000000
     32361      2383  MEOH      C1            -28.4688205274       -0.9254493984       -4.5336859712  MEOH      1691            0.0000000000
     32362      2383  MEOH      DC1           -28.4715183827       -0.9287745077       -4.5319978129  MEOH      1691            0.0000000000
     32363      2383  MEOH      O1            -29.8661719826       -0.9067439948       -4.8124274780  MEOH      1691            0.0000000000
     32364      2383  MEOH      DO1           -29.8638405212       -0.9126128746       -4.8117055319  MEOH      1691            0.0000000000
     32365      2383  MEOH      HO1           -30.3340327052       -1.4013672266       -4.1215192331  MEOH      1691            0.0000000000
     32366      2383  MEOH      HO2           -30.0896221564        0.0163559946       -5.0095478239  MEOH      1691            0.0000000000
     32367      2383  MEOH      H1A           -27.9116769813       -0.4189778804       -5.3506306887  MEOH      1691            0.0000000000
     32368      2383  MEOH      H1B           -28.1292365239       -1.9815342264       -4.4729526147  MEOH      1691            0.0000000000
     32369      2383  MEOH      H1C           -28.2598271377       -0.4008849297       -3.5768814544  MEOH      1691            0.0000000000
     32370      2383  MEOH      LP1A          -30.0140280152       -0.6261813127       -4.6643627117  MEOH      1691            0.0000000000
     32371      2383  MEOH      LP1B          -29.9511195238       -1.1779175760       -5.0167527190  MEOH      1691            0.0000000000
     32372      2384  MEOH      C1             34.9028377185        2.0167384533      -25.2515040646  MEOH      1692            0.0000000000
     32373      2384  MEOH      DC1            34.9016758183        2.0139172785      -25.2456815970  MEOH      1692            0.0000000000
     32374      2384  MEOH      O1             35.0439204879        0.6428490076      -25.6125186194  MEOH      1692            0.0000000000
     32375      2384  MEOH      DO1            35.0460836519        0.6380612534      -25.6159451805  MEOH      1692            0.0000000000
     32376      2384  MEOH      HO1            34.2133530020        0.2034221330      -25.3717663124  MEOH      1692            0.0000000000
     32377      2384  MEOH      HO2            35.3670523680        0.6382237295      -26.5271028947  MEOH      1692            0.0000000000
     32378      2384  MEOH      H1A            35.8666200720        2.5451515681      -25.4134428044  MEOH      1692            0.0000000000
     32379      2384  MEOH      H1B            34.6266517688        2.1022296035      -24.1787815541  MEOH      1692            0.0000000000
     32380      2384  MEOH      H1C            34.1160737631        2.4950007907      -25.8732665726  MEOH      1692            0.0000000000
     32381      2384  MEOH      LP1A           34.9396638639        0.5946384609      -25.9431336516  MEOH      1692            0.0000000000
     32382      2384  MEOH      LP1B           35.1824472082        0.4627410317      -25.3463016688  MEOH      1692            0.0000000000
     32383      2385  MEOH      C1             25.9752076484       10.0233641297       24.8214393099  MEOH      1693            0.0000000000
     32384      2385  MEOH      DC1            25.9899538492       10.0348677314       24.8300845281  MEOH      1693            0.0000000000
     32385      2385  MEOH      O1             27.0951584840       10.6650587173       25.4304085618  MEOH      1693            0.0000000000
     32386      2385  MEOH      DO1            27.1114506539       10.6764284937       25.4368308762  MEOH      1693            0.0000000000
     32387      2385  MEOH      HO1            27.5362726980       11.1293895032       24.7019065562  MEOH      1693            0.0000000000
     32388      2385  MEOH      HO2            26.7486605832       11.1418225496       26.2008210831  MEOH      1693            0.0000000000
     32389      2385  MEOH      H1A            25.4311790578        9.4075630753       25.5691979316  MEOH      1693            0.0000000000
     32390      2385  MEOH      H1B            26.3204061067        9.3570110771       24.0022124584  MEOH      1693            0.0000000000
     32391      2385  MEOH      H1C            25.2845544361       10.7882464356       24.4063800388  MEOH      1693            0.0000000000
     32392      2385  MEOH      LP1A           27.0034348700       10.9828886195       25.5447367382  MEOH      1693            0.0000000000
     32393      2385  MEOH      LP1B           27.3717026260       10.4505374534       25.4284173693  MEOH      1693            0.0000000000
     32394      2386  MEOH      C1             -7.6598062729        9.3663554650        8.6473678706  MEOH      1694            0.0000000000
     32395      2386  MEOH      DC1            -7.6441812487        9.3675723669        8.6475384634  MEOH      1694            0.0000000000
     32396      2386  MEOH      O1             -6.4883029905        8.5469802792        8.6688549084  MEOH      1694            0.0000000000
     32397      2386  MEOH      DO1            -6.4771039250        8.5570842517        8.6691656732  MEOH      1694            0.0000000000
     32398      2386  MEOH      HO1            -6.4259336352        8.0933516171        7.8137343900  MEOH      1694            0.0000000000
     32399      2386  MEOH      HO2            -5.7649985698        9.0916565991        9.0167894158  MEOH      1694            0.0000000000
     32400      2386  MEOH      H1A            -7.9020367841        9.6945614803        9.6807730143  MEOH      1694            0.0000000000
     32401      2386  MEOH      H1B            -8.5379527026        8.8018253292        8.2672552887  MEOH      1694            0.0000000000
     32402      2386  MEOH      H1C            -7.5090427827       10.2627114823        8.0085116578  MEOH      1694            0.0000000000
     32403      2386  MEOH      LP1A           -6.2120693790        8.7300908097        8.5563136917  MEOH      1694            0.0000000000
     32404      2386  MEOH      LP1B           -6.5661064941        8.2301827540        8.7956852790  MEOH      1694            0.0000000000
     32405      2387  MEOH      C1            -13.5272932275       17.5360974769       20.1120319615  MEOH      1695            0.0000000000
     32406      2387  MEOH      DC1           -13.5265456820       17.5561065197       20.1274837668  MEOH      1695            0.0000000000
     32407      2387  MEOH      O1            -13.6899437202       16.1878184349       20.5194315813  MEOH      1695            0.0000000000
     32408      2387  MEOH      DO1           -13.6831884305       16.2054248117       20.5432106410  MEOH      1695            0.0000000000
     32409      2387  MEOH      HO1           -14.0663753998       15.7094089417       19.7642338937  MEOH      1695            0.0000000000
     32410      2387  MEOH      HO2           -12.8323070205       15.9221556709       20.8865590640  MEOH      1695            0.0000000000
     32411      2387  MEOH      H1A           -13.1129081158       18.1061303478       20.9709082660  MEOH      1695            0.0000000000
     32412      2387  MEOH      H1B           -14.4981668240       17.9778364722       19.8012392339  MEOH      1695            0.0000000000
     32413      2387  MEOH      H1C           -12.8128167344       17.5863514077       19.2627270189  MEOH      1695            0.0000000000
     32414      2387  MEOH      LP1A          -13.3984786891       16.0062900358       20.4516409033  MEOH      1695            0.0000000000
     32415      2387  MEOH      LP1B          -14.0046174849       16.1442897191       20.6663522154  MEOH      1695            0.0000000000
     32416      2388  MEOH      C1            -10.9904679469      -24.6218674361       20.7718825382  MEOH      1696            0.0000000000
     32417      2388  MEOH      DC1           -10.9618482778      -24.6199735898       20.7873991892  MEOH      1696            0.0000000000
     32418      2388  MEOH      O1            -10.1963158297      -25.5846593090       20.0766882668  MEOH      1696            0.0000000000
     32419      2388  MEOH      DO1           -10.1709615092      -25.5876649383       20.0851698682  MEOH      1696            0.0000000000
     32420      2388  MEOH      HO1           -10.7878077272      -25.8894362898       19.3708920299  MEOH      1696            0.0000000000
     32421      2388  MEOH      HO2            -9.3582919543      -25.1430086837       19.8679762416  MEOH      1696            0.0000000000
     32422      2388  MEOH      H1A           -10.4340433557      -24.1871102619       21.6296114428  MEOH      1696            0.0000000000
     32423      2388  MEOH      H1B           -11.9239239802      -25.1017756505       21.1361200165  MEOH      1696            0.0000000000
     32424      2388  MEOH      H1C           -11.3003591732      -23.8242482625       20.0632979757  MEOH      1696            0.0000000000
     32425      2388  MEOH      LP1A          -10.0114886163      -25.4276216822       19.8243430965  MEOH      1696            0.0000000000
     32426      2388  MEOH      LP1B          -10.2393811089      -25.9011446971       20.2198049354  MEOH      1696            0.0000000000
     32427      2389  MEOH      C1             -2.1135472225      -15.6042773886      -36.6288432823  MEOH      1697            0.0000000000
     32428      2389  MEOH      DC1            -2.1150280475      -15.6162288943      -36.6264028869  MEOH      1697            0.0000000000
     32429      2389  MEOH      O1             -1.2645250418      -16.7490640980      -36.7010886515  MEOH      1697            0.0000000000
     32430      2389  MEOH      DO1            -1.2640304633      -16.7597597617      -36.6983354664  MEOH      1697            0.0000000000
     32431      2389  MEOH      HO1            -1.6347015497      -17.3261879921      -37.3872354024  MEOH      1697            0.0000000000
     32432      2389  MEOH      HO2            -0.3679946090      -16.3934369100      -36.8043479748  MEOH      1697            0.0000000000
     32433      2389  MEOH      H1A            -1.7175868824      -14.9089498149      -35.8580930141  MEOH      1697            0.0000000000
     32434      2389  MEOH      H1B            -3.1460647306      -15.9079555199      -36.3531474564  MEOH      1697            0.0000000000
     32435      2389  MEOH      H1C            -2.1301509359      -15.0629397605      -37.5988942546  MEOH      1697            0.0000000000
     32436      2389  MEOH      LP1A           -1.0056047836      -16.6918482367      -36.9295326164  MEOH      1697            0.0000000000
     32437      2389  MEOH      LP1B           -1.3743995050      -16.9939543222      -36.4764636742  MEOH      1697            0.0000000000
     32438      2390  MEOH      C1             28.7861710724       36.7375001447       32.3643407705  MEOH      1698            0.0000000000
     32439      2390  MEOH      DC1            28.7916161412       36.7483981941       32.3673047361  MEOH      1698            0.0000000000
     32440      2390  MEOH      O1             29.8621956266       36.0477744476       33.0010205011  MEOH      1698            0.0000000000
     32441      2390  MEOH      DO1            29.8607614873       36.0507320903       33.0037791845  MEOH      1698            0.0000000000
     32442      2390  MEOH      HO1            30.3190400437       35.5294628743       32.3201781608  MEOH      1698            0.0000000000
     32443      2390  MEOH      HO2            30.3392524413       36.7067637561       33.5292722279  MEOH      1698            0.0000000000
     32444      2390  MEOH      H1A            28.1206561054       37.1777809018       33.1373632050  MEOH      1698            0.0000000000
     32445      2390  MEOH      H1B            28.1976410904       36.0268672376       31.7455077303  MEOH      1698            0.0000000000
     32446      2390  MEOH      H1C            29.1808989433       37.5450411109       31.7113564689  MEOH      1698            0.0000000000
     32447      2390  MEOH      LP1A           30.1499385310       36.2470232802       32.9990396831  MEOH      1698            0.0000000000
     32448      2390  MEOH      LP1B           29.7519209446       35.7375668899       33.1198092448  MEOH      1698            0.0000000000
     32449      2391  MEOH      C1             -4.3866461981        4.0092814292       21.9291363540  MEOH      1699            0.0000000000
     32450      2391  MEOH      DC1            -4.3651499209        4.0001940976       21.9089536039  MEOH      1699            0.0000000000
     32451      2391  MEOH      O1             -3.1386169033        4.0430265652       21.2494517262  MEOH      1699            0.0000000000
     32452      2391  MEOH      DO1            -3.1235730071        4.0477315651       21.2322502916  MEOH      1699            0.0000000000
     32453      2391  MEOH      HO1            -3.3612527387        4.0842456769       20.3062474693  MEOH      1699            0.0000000000
     32454      2391  MEOH      HO2            -2.6332071842        4.7561535818       21.6700594700  MEOH      1699            0.0000000000
     32455      2391  MEOH      H1A            -4.2190626804        3.8686567799       23.0183844768  MEOH      1699            0.0000000000
     32456      2391  MEOH      H1B            -5.0048131248        3.1604965052       21.5661559087  MEOH      1699            0.0000000000
     32457      2391  MEOH      H1C            -4.9392892196        4.9613727599       21.7793739097  MEOH      1699            0.0000000000
     32458      2391  MEOH      LP1A           -3.0317137294        4.3741703634       21.2118286438  MEOH      1699            0.0000000000
     32459      2391  MEOH      LP1B           -3.0298281103        3.7171350989       21.1826703612  MEOH      1699            0.0000000000
     32460      2392  MEOH      C1            -27.3425783259       -9.0404250343      -20.0310975286  MEOH      1700            0.0000000000
     32461      2392  MEOH      DC1           -27.3463459029       -9.0431284457      -20.0202343935  MEOH      1700            0.0000000000
     32462      2392  MEOH      O1            -28.4346394324       -9.8294844912      -19.5517248798  MEOH      1700            0.0000000000
     32463      2392  MEOH      DO1           -28.4427209288       -9.8268189469      -19.5350829512  MEOH      1700            0.0000000000
     32464      2392  MEOH      HO1           -29.1129296887       -9.7712854469      -20.2426917388  MEOH      1700            0.0000000000
     32465      2392  MEOH      HO2           -28.0553057279      -10.6967052490      -19.3397482350  MEOH      1700            0.0000000000
     32466      2392  MEOH      H1A           -26.5172125662       -9.0293587349      -19.2874780693  MEOH      1700            0.0000000000
     32467      2392  MEOH      H1B           -27.6712139246       -7.9929650959      -20.2018233928  MEOH      1700            0.0000000000
     32468      2392  MEOH      H1C           -26.9555075119       -9.4666644943      -20.9812644134  MEOH      1700            0.0000000000
     32469      2392  MEOH      LP1A          -28.3960056645      -10.1619932739      -19.6539273330  MEOH      1700            0.0000000000
     32470      2392  MEOH      LP1B          -28.6501665228       -9.6315125820      -19.3597478071  MEOH      1700            0.0000000000
     32471      2393  MEOH      C1              8.3302490982       -5.6271193248       -5.9503488605  MEOH      1701            0.0000000000
     32472      2393  MEOH      DC1             8.3516960475       -5.6367511455       -5.9370093233  MEOH      1701            0.0000000000
     32473      2393  MEOH      O1              7.7732742595       -5.1667268870       -7.1809601124  MEOH      1701            0.0000000000
     32474      2393  MEOH      DO1             7.7924899567       -5.1801276085       -7.1721077989  MEOH      1701            0.0000000000
     32475      2393  MEOH      HO1             6.8450626754       -5.4466106961       -7.2123974846  MEOH      1701            0.0000000000
     32476      2393  MEOH      HO2             7.9767424911       -4.2190210683       -7.2177617543  MEOH      1701            0.0000000000
     32477      2393  MEOH      H1A             9.3916010758       -5.3047614228       -5.8875924706  MEOH      1701            0.0000000000
     32478      2393  MEOH      H1B             8.2805865374       -6.7356837457       -5.8961311956  MEOH      1701            0.0000000000
     32479      2393  MEOH      H1C             7.7487268539       -5.2062742369       -5.1023852461  MEOH      1701            0.0000000000
     32480      2393  MEOH      LP1A            7.6419762953       -4.8448900173       -7.1399494566  MEOH      1701            0.0000000000
     32481      2393  MEOH      LP1B            7.8212277592       -5.4066440713       -7.4312403684  MEOH      1701            0.0000000000
     32482      2394  MEOH      C1             35.6906503216      -36.7409363834      -15.1346948994  MEOH      1702            0.0000000000
     32483      2394  MEOH      DC1            35.6888588109      -36.7412433262      -15.1323778302  MEOH      1702            0.0000000000
     32484      2394  MEOH      O1             35.2592881889      -35.3852216608      -15.0318091824  MEOH      1702            0.0000000000
     32485      2394  MEOH      DO1            35.2561750420      -35.3883670090      -15.0310363854  MEOH      1702            0.0000000000
     32486      2394  MEOH      HO1            34.6302081796      -35.3345909242      -14.2951987898  MEOH      1702            0.0000000000
     32487      2394  MEOH      HO2            36.0719439206      -34.8563356501      -15.0040557926  MEOH      1702            0.0000000000
     32488      2394  MEOH      H1A            36.3787248670      -36.8544891790      -15.9995533759  MEOH      1702            0.0000000000
     32489      2394  MEOH      H1B            34.8123931050      -37.4044939703      -15.2852823862  MEOH      1702            0.0000000000
     32490      2394  MEOH      H1C            36.2288475142      -37.0369311200      -14.2089239246  MEOH      1702            0.0000000000
     32491      2394  MEOH      LP1A           35.4739924483      -35.2069919576      -14.8205362455  MEOH      1702            0.0000000000
     32492      2394  MEOH      LP1B           34.9788941460      -35.3330921466      -15.2346926329  MEOH      1702            0.0000000000
     32493      2395  MEOH      C1              8.1658366024      -13.1766055382       15.3905829988  MEOH      1703            0.0000000000
     32494      2395  MEOH      DC1             8.1775562224      -13.1756509678       15.3912484594  MEOH      1703            0.0000000000
     32495      2395  MEOH      O1              9.3308764624      -12.6312729700       16.0049683274  MEOH      1703            0.0000000000
     32496      2395  MEOH      DO1             9.3326832963      -12.6335430623       15.9996996443  MEOH      1703            0.0000000000
     32497      2395  MEOH      HO1            10.0158322835      -12.5051956405       15.3298090642  MEOH      1703            0.0000000000
     32498      2395  MEOH      HO2             9.0205047493      -11.8784792998       16.5321031202  MEOH      1703            0.0000000000
     32499      2395  MEOH      H1A             7.4275333297      -13.4554302455       16.1725587407  MEOH      1703            0.0000000000
     32500      2395  MEOH      H1B             8.4299870568      -14.0867481005       14.8107674646  MEOH      1703            0.0000000000
     32501      2395  MEOH      H1C             7.6949955008      -12.4340587740       14.7114261968  MEOH      1703            0.0000000000
     32502      2395  MEOH      LP1A            9.3139026187      -12.2816849815       16.0046120675  MEOH      1703            0.0000000000
     32503      2395  MEOH      LP1B            9.5381809985      -12.8893347151       16.1186739345  MEOH      1703            0.0000000000
     32504      2396  MEOH      C1             -2.0617990889      -30.2829585284      -34.5625949376  MEOH      1704            0.0000000000
     32505      2396  MEOH      DC1            -2.0540052947      -30.2885248271      -34.5571011741  MEOH      1704            0.0000000000
     32506      2396  MEOH      O1             -0.7366410012      -30.3167006452      -34.0362040454  MEOH      1704            0.0000000000
     32507      2396  MEOH      DO1            -0.7350819908      -30.3229264421      -34.0247868162  MEOH      1704            0.0000000000
     32508      2396  MEOH      HO1            -0.2078869859      -30.8280679721      -34.6685193531  MEOH      1704            0.0000000000
     32509      2396  MEOH      HO2            -0.4987901064      -29.3896530609      -33.8783758827  MEOH      1704            0.0000000000
     32510      2396  MEOH      H1A            -2.7092721956      -29.6513588720      -33.9174736685  MEOH      1704            0.0000000000
     32511      2396  MEOH      H1B            -2.4817565226      -31.3098764927      -34.6208722823  MEOH      1704            0.0000000000
     32512      2396  MEOH      H1C            -2.0478374801      -29.8525333222      -35.5867337052  MEOH      1704            0.0000000000
     32513      2396  MEOH      LP1A           -0.5552392518      -30.0401828271      -34.1507959367  MEOH      1704            0.0000000000
     32514      2396  MEOH      LP1B           -0.6990268702      -30.5926600611      -33.8242333448  MEOH      1704            0.0000000000
     32515      2397  MEOH      C1             25.2147273318       19.0294210450      -13.5810132258  MEOH      1705            0.0000000000
     32516      2397  MEOH      DC1            25.2229708717       19.0192469833      -13.5721091458  MEOH      1705            0.0000000000
     32517      2397  MEOH      O1             24.4024362842       18.1189596603      -12.8555124995  MEOH      1705            0.0000000000
     32518      2397  MEOH      DO1            24.3986834978       18.1147601453      -12.8535581696  MEOH      1705            0.0000000000
     32519      2397  MEOH      HO1            23.4932549050       18.4402500019      -12.9606872878  MEOH      1705            0.0000000000
     32520      2397  MEOH      HO2            24.6635486819       17.2337578834      -13.1540725962  MEOH      1705            0.0000000000
     32521      2397  MEOH      H1A            26.2897172039       18.8019214527      -13.4168130095  MEOH      1705            0.0000000000
     32522      2397  MEOH      H1B            25.0072745524       20.0686699815      -13.2474776322  MEOH      1705            0.0000000000
     32523      2397  MEOH      H1C            24.9982536057       18.9553155055      -14.6681969711  MEOH      1705            0.0000000000
     32524      2397  MEOH      LP1A           24.3045581666       17.8544708932      -13.0627938692  MEOH      1705            0.0000000000
     32525      2397  MEOH      LP1B           24.3726563896       18.2238944999      -12.5229439542  MEOH      1705            0.0000000000
     32526      2398  MEOH      C1             -5.1021080123       -6.8796468549      -21.0330474473  MEOH      1706            0.0000000000
     32527      2398  MEOH      DC1            -5.0944932152       -6.8667686472      -21.0476079807  MEOH      1706            0.0000000000
     32528      2398  MEOH      O1             -4.6060420034       -5.7484642128      -21.7544259084  MEOH      1706            0.0000000000
     32529      2398  MEOH      DO1            -4.5991876036       -5.7401881207      -21.7617999108  MEOH      1706            0.0000000000
     32530      2398  MEOH      HO1            -5.2788844442       -5.5276858130      -22.4173285770  MEOH      1706            0.0000000000
     32531      2398  MEOH      HO2            -4.3625577607       -5.0965508059      -21.0786860660  MEOH      1706            0.0000000000
     32532      2398  MEOH      H1A            -4.3360880848       -7.2361004141      -20.3116076836  MEOH      1706            0.0000000000
     32533      2398  MEOH      H1B            -5.3392419086       -7.7092429767      -21.7329465760  MEOH      1706            0.0000000000
     32534      2398  MEOH      H1C            -6.0194181710       -6.6061268923      -20.4690883151  MEOH      1706            0.0000000000
     32535      2398  MEOH      LP1A           -4.7057753029       -5.4525488491      -21.5963519811  MEOH      1706            0.0000000000
     32536      2398  MEOH      LP1B           -4.4137944020       -5.8550823485      -22.0267739080  MEOH      1706            0.0000000000
     32537      2399  MEOH      C1            -23.4073412444       25.9161604730       21.7904980509  MEOH      1707            0.0000000000
     32538      2399  MEOH      DC1           -23.4016782032       25.9113819732       21.7868453085  MEOH      1707            0.0000000000
     32539      2399  MEOH      O1            -24.4589746503       26.6406035095       22.4357997538  MEOH      1707            0.0000000000
     32540      2399  MEOH      DO1           -24.4593448658       26.6389949146       22.4406379897  MEOH      1707            0.0000000000
     32541      2399  MEOH      HO1           -24.5555473974       27.4931179170       21.9832592691  MEOH      1707            0.0000000000
     32542      2399  MEOH      HO2           -25.2099387014       26.0288298784       22.4876265630  MEOH      1707            0.0000000000
     32543      2399  MEOH      H1A           -23.1878424623       24.9953909772       22.3721550134  MEOH      1707            0.0000000000
     32544      2399  MEOH      H1B           -22.4622719085       26.4981607185       21.7410949693  MEOH      1707            0.0000000000
     32545      2399  MEOH      H1C           -23.7008119858       25.6650086477       20.7488077486  MEOH      1707            0.0000000000
     32546      2399  MEOH      LP1A          -24.7663619045       26.5628190293       22.2876017424  MEOH      1707            0.0000000000
     32547      2399  MEOH      LP1B          -24.3290850606       26.8308848625       22.6992797363  MEOH      1707            0.0000000000
     32548      2400  MEOH      C1              0.2585119120      -35.4203865937      -19.7393728091  MEOH      1708            0.0000000000
     32549      2400  MEOH      DC1             0.2645555964      -35.4041823589      -19.7323316092  MEOH      1708            0.0000000000
     32550      2400  MEOH      O1              0.0028526276      -34.0635021650      -19.3637978319  MEOH      1708            0.0000000000
     32551      2400  MEOH      DO1             0.0087232487      -34.0552730113      -19.3560870973  MEOH      1708            0.0000000000
     32552      2400  MEOH      HO1             0.2729461647      -33.5018172091      -20.1070740208  MEOH      1708            0.0000000000
     32553      2400  MEOH      HO2            -0.9152273922      -34.0480790285      -19.0510819799  MEOH      1708            0.0000000000
     32554      2400  MEOH      H1A            -0.0362626084      -36.1032591213      -18.9140764423  MEOH      1708            0.0000000000
     32555      2400  MEOH      H1B             1.3394634142      -35.5672662638      -19.9498275890  MEOH      1708            0.0000000000
     32556      2400  MEOH      H1C            -0.3336758278      -35.6892507865      -20.6401206802  MEOH      1708            0.0000000000
     32557      2400  MEOH      LP1A           -0.3232241213      -33.9737589071      -19.4539094379  MEOH      1708            0.0000000000
     32558      2400  MEOH      LP1B            0.2821642365      -33.9297830056      -19.2006898568  MEOH      1708            0.0000000000
     32559      2401  MEOH      C1             22.3623974822      -35.0003057520      -11.5583682267  MEOH      1709            0.0000000000
     32560      2401  MEOH      DC1            22.3688509381      -35.0090728102      -11.5627314747  MEOH      1709            0.0000000000
     32561      2401  MEOH      O1             21.2999713801      -34.1904189042      -11.0698306899  MEOH      1709            0.0000000000
     32562      2401  MEOH      DO1            21.3035921507      -34.1843029729      -11.0815735978  MEOH      1709            0.0000000000
     32563      2401  MEOH      HO1            21.4390307197      -34.0864843023      -10.1154931714  MEOH      1709            0.0000000000
     32564      2401  MEOH      HO2            21.2323403206      -33.4320722928      -11.6708601873  MEOH      1709            0.0000000000
     32565      2401  MEOH      H1A            22.0813313939      -35.4515362112      -12.5339264912  MEOH      1709            0.0000000000
     32566      2401  MEOH      H1B            22.5639980820      -35.8010637665      -10.8150884675  MEOH      1709            0.0000000000
     32567      2401  MEOH      H1C            23.2774246899      -34.3851138627      -11.6946955907  MEOH      1709            0.0000000000
     32568      2401  MEOH      LP1A           21.3883327335      -33.8523338318      -11.0895982158  MEOH      1709            0.0000000000
     32569      2401  MEOH      LP1B           21.0284537815      -34.3914817799      -10.9784418852  MEOH      1709            0.0000000000
     32570      2402  MEOH      C1            -26.5595665819       14.6593579923       23.9997307355  MEOH      1710            0.0000000000
     32571      2402  MEOH      DC1           -26.5663981729       14.6677956358       24.0068449594  MEOH      1710            0.0000000000
     32572      2402  MEOH      O1            -25.2154712185       14.7520255789       24.4766317356  MEOH      1710            0.0000000000
     32573      2402  MEOH      DO1           -25.2197594126       14.7603785817       24.4918380911  MEOH      1710            0.0000000000
     32574      2402  MEOH      HO1           -24.6555359724       14.4065679385       23.7638684236  MEOH      1710            0.0000000000
     32575      2402  MEOH      HO2           -25.1075290762       15.6613054549       24.7967232885  MEOH      1710            0.0000000000
     32576      2402  MEOH      H1A           -27.2773368956       14.9233952217       24.8055912186  MEOH      1710            0.0000000000
     32577      2402  MEOH      H1B           -26.7666864078       13.6183957501       23.6713711916  MEOH      1710            0.0000000000
     32578      2402  MEOH      H1C           -26.7107044230       15.3621980107       23.1526804050  MEOH      1710            0.0000000000
     32579      2402  MEOH      LP1A          -25.0804489514       15.0642247609       24.3941656328  MEOH      1710            0.0000000000
     32580      2402  MEOH      LP1B          -25.1291444914       14.4598141988       24.6488531208  MEOH      1710            0.0000000000
     32581      2403  MEOH      C1            -20.8749633416      -21.6344212550       -7.1248223228  MEOH      1711            0.0000000000
     32582      2403  MEOH      DC1           -20.8835067067      -21.6492687955       -7.1244601834  MEOH      1711            0.0000000000
     32583      2403  MEOH      O1            -22.0278527920      -22.4769437101       -7.2139087174  MEOH      1711            0.0000000000
     32584      2403  MEOH      DO1           -22.0392833001      -22.4848229256       -7.2078241922  MEOH      1711            0.0000000000
     32585      2403  MEOH      HO1           -22.3855874427      -22.5516229039       -6.3153827369  MEOH      1711            0.0000000000
     32586      2403  MEOH      HO2           -22.5781730754      -22.0919162984       -7.9137669020  MEOH      1711            0.0000000000
     32587      2403  MEOH      H1A           -20.4282406622      -21.4962635091       -8.1326280014  MEOH      1711            0.0000000000
     32588      2403  MEOH      H1B           -20.1139619720      -22.0940823252       -6.4585568982  MEOH      1711            0.0000000000
     32589      2403  MEOH      H1C           -21.1569220996      -20.6390181929       -6.7198618253  MEOH      1711            0.0000000000
     32590      2403  MEOH      LP1A          -22.3122581720      -22.2840340751       -7.2802370866  MEOH      1711            0.0000000000
     32591      2403  MEOH      LP1B          -21.9347031514      -22.8119272230       -7.1737940000  MEOH      1711            0.0000000000
     32592      2404  MEOH      C1            -36.3762637022       -1.7211666306       -6.1522696801  MEOH      1712            0.0000000000
     32593      2404  MEOH      DC1           -36.3823469019       -1.7329279140       -6.1430853166  MEOH      1712            0.0000000000
     32594      2404  MEOH      O1            -36.7280133036       -0.5726634089       -5.3622765581  MEOH      1712            0.0000000000
     32595      2404  MEOH      DO1           -36.7305443280       -0.5754277536       -5.3574640373  MEOH      1712            0.0000000000
     32596      2404  MEOH      HO1           -36.7113461982        0.1972541526       -5.9520639402  MEOH      1712            0.0000000000
     32597      2404  MEOH      HO2           -37.5296445971       -0.8004518187       -4.8658899038  MEOH      1712            0.0000000000
     32598      2404  MEOH      H1A           -36.4791557374       -2.6502989795       -5.5518970387  MEOH      1712            0.0000000000
     32599      2404  MEOH      H1B           -35.3304252306       -1.6515542337       -6.5206404252  MEOH      1712            0.0000000000
     32600      2404  MEOH      H1C           -37.0211810142       -1.8010939288       -7.0533880340  MEOH      1712            0.0000000000
     32601      2404  MEOH      LP1A          -37.0751939845       -0.5283440092       -5.3634451421  MEOH      1712            0.0000000000
     32602      2404  MEOH      LP1B          -36.4404856336       -0.4324217682       -5.2202902165  MEOH      1712            0.0000000000
     32603      2405  MEOH      C1            -24.5348543157      -24.6675660149      -24.5533979154  MEOH      1713            0.0000000000
     32604      2405  MEOH      DC1           -24.5279193068      -24.6738589520      -24.5479986772  MEOH      1713            0.0000000000
     32605      2405  MEOH      O1            -23.2761535245      -24.2515536527      -25.0835707067  MEOH      1713            0.0000000000
     32606      2405  MEOH      DO1           -23.2657805381      -24.2540401638      -25.0824736414  MEOH      1713            0.0000000000
     32607      2405  MEOH      HO1           -22.7065511585      -24.0594420717      -24.3222913323  MEOH      1713            0.0000000000
     32608      2405  MEOH      HO2           -23.0276684237      -24.9244222930      -25.7365660723  MEOH      1713            0.0000000000
     32609      2405  MEOH      H1A           -25.2555580935      -24.8322815207      -25.3827204502  MEOH      1713            0.0000000000
     32610      2405  MEOH      H1B           -24.9523700669      -23.8976431056      -23.8698627573  MEOH      1713            0.0000000000
     32611      2405  MEOH      H1C           -24.4234495940      -25.6216518906      -23.9951594983  MEOH      1713            0.0000000000
     32612      2405  MEOH      LP1A          -23.0689865613      -24.5294418375      -25.1321506006  MEOH      1713            0.0000000000
     32613      2405  MEOH      LP1B          -23.2762873331      -23.9052866314      -25.1345523908  MEOH      1713            0.0000000000
     32614      2406  MEOH      C1             31.1965860534       18.3290779401      -32.4803519430  MEOH      1714            0.0000000000
     32615      2406  MEOH      DC1            31.1903684733       18.3161349882      -32.4726629954  MEOH      1714            0.0000000000
     32616      2406  MEOH      O1             30.9582995052       17.5503994868      -31.3090826922  MEOH      1714            0.0000000000
     32617      2406  MEOH      DO1            30.9500468583       17.5473646838      -31.3008879643  MEOH      1714            0.0000000000
     32618      2406  MEOH      HO1            31.5555354227       17.8647247328      -30.6123697682  MEOH      1714            0.0000000000
     32619      2406  MEOH      HO2            29.9975130781       17.5343782909      -31.1766713470  MEOH      1714            0.0000000000
     32620      2406  MEOH      H1A            30.6450205638       17.8915797572      -33.3398237874  MEOH      1714            0.0000000000
     32621      2406  MEOH      H1B            32.2824750784       18.3224820308      -32.7151337977  MEOH      1714            0.0000000000
     32622      2406  MEOH      H1C            30.8657712703       19.3782103703      -32.3247764793  MEOH      1714            0.0000000000
     32623      2406  MEOH      LP1A           30.7066390257       17.6984319668      -31.1160713248  MEOH      1714            0.0000000000
     32624      2406  MEOH      LP1B           31.1619086568       17.2657257031      -31.3111199143  MEOH      1714            0.0000000000
     32625      2407  MEOH      C1            -26.6539185589       29.5175812634        8.4514202793  MEOH      1715            0.0000000000
     32626      2407  MEOH      DC1           -26.6557397737       29.5225778653        8.4446772151  MEOH      1715            0.0000000000
     32627      2407  MEOH      O1            -27.4364295177       30.7120039855        8.4079649776  MEOH      1715            0.0000000000
     32628      2407  MEOH      DO1           -27.4389470344       30.7204107024        8.4003327453  MEOH      1715            0.0000000000
     32629      2407  MEOH      HO1           -27.9220686464       30.7427560065        9.2470769784  MEOH      1715            0.0000000000
     32630      2407  MEOH      HO2           -26.8315964637       31.4245893068        8.1485442044  MEOH      1715            0.0000000000
     32631      2407  MEOH      H1A           -26.1415180461       29.3553305520        7.4790821585  MEOH      1715            0.0000000000
     32632      2407  MEOH      H1B           -27.3090251362       28.6463032262        8.6659685379  MEOH      1715            0.0000000000
     32633      2407  MEOH      H1C           -25.8869336878       29.6048721036        9.2504418793  MEOH      1715            0.0000000000
     32634      2407  MEOH      LP1A          -27.2522408186       30.9805179140        8.5363191491  MEOH      1715            0.0000000000
     32635      2407  MEOH      LP1B          -27.7475753595       30.6460219148        8.2619011851  MEOH      1715            0.0000000000
     32636      2408  MEOH      C1             27.5575988489       -8.8988262267       25.8281009155  MEOH      1716            0.0000000000
     32637      2408  MEOH      DC1            27.5674156283       -8.9101927834       25.8351030238  MEOH      1716            0.0000000000
     32638      2408  MEOH      O1             26.1533487663       -8.7305666579       25.6384639550  MEOH      1716            0.0000000000
     32639      2408  MEOH      DO1            26.1605251145       -8.7525333185       25.6369369438  MEOH      1716            0.0000000000
     32640      2408  MEOH      HO1            25.7061964389       -8.9151945108       26.4792179931  MEOH      1716            0.0000000000
     32641      2408  MEOH      HO2            26.0612801956       -7.8363953230       25.2739354897  MEOH      1716            0.0000000000
     32642      2408  MEOH      H1A            28.0951182625       -8.5676509770       24.9139254210  MEOH      1716            0.0000000000
     32643      2408  MEOH      H1B            27.7958871812       -9.9642710879       26.0339331736  MEOH      1716            0.0000000000
     32644      2408  MEOH      H1C            27.9108768534       -8.2633293024       26.6681362199  MEOH      1716            0.0000000000
     32645      2408  MEOH      LP1A           26.0631105247       -8.3981982251       25.7008200665  MEOH      1716            0.0000000000
     32646      2408  MEOH      LP1B           26.0097967525       -9.0319505142       25.5332946127  MEOH      1716            0.0000000000
     32647      2409  MEOH      C1              1.3558775825      -33.5555700066        9.5355826268  MEOH      1717            0.0000000000
     32648      2409  MEOH      DC1             1.3462908771      -33.5509607740        9.5368376368  MEOH      1717            0.0000000000
     32649      2409  MEOH      O1              0.2580963090      -32.6940960228        9.2263783537  MEOH      1717            0.0000000000
     32650      2409  MEOH      DO1             0.2577911762      -32.6909475418        9.2116821294  MEOH      1717            0.0000000000
     32651      2409  MEOH      HO1            -0.2416039245      -32.5214419361       10.0396373794  MEOH      1717            0.0000000000
     32652      2409  MEOH      HO2             0.6176186098      -31.9728771649        8.6864829239  MEOH      1717            0.0000000000
     32653      2409  MEOH      H1A             1.8155451349      -33.9381712255        8.5992904453  MEOH      1717            0.0000000000
     32654      2409  MEOH      H1B             1.0025260900      -34.4148308146       10.1447907905  MEOH      1717            0.0000000000
     32655      2409  MEOH      H1C             2.1245609181      -32.9981616996       10.1124213479  MEOH      1717            0.0000000000
     32656      2409  MEOH      LP1A            0.3566495282      -32.3595083211        9.2553323320  MEOH      1717            0.0000000000
     32657      2409  MEOH      LP1B           -0.0210902913      -32.8841900366        9.1346226558  MEOH      1717            0.0000000000
     32658      2410  MEOH      C1             25.4713806239      -20.6938812782        2.6745093052  MEOH      1718            0.0000000000
     32659      2410  MEOH      DC1            25.4599170182      -20.6986360117        2.6803551992  MEOH      1718            0.0000000000
     32660      2410  MEOH      O1             25.1871596810      -21.6320269742        1.6307616144  MEOH      1718            0.0000000000
     32661      2410  MEOH      DO1            25.1832305396      -21.6393133791        1.6315635765  MEOH      1718            0.0000000000
     32662      2410  MEOH      HO1            24.7044260638      -22.3745320230        2.0264313093  MEOH      1718            0.0000000000
     32663      2410  MEOH      HO2            24.7945725894      -21.1196185795        0.9067360525  MEOH      1718            0.0000000000
     32664      2410  MEOH      H1A            26.1510718861      -19.9004259306        2.2966609215  MEOH      1718            0.0000000000
     32665      2410  MEOH      H1B            25.9796432565      -21.2023991855        3.5215037766  MEOH      1718            0.0000000000
     32666      2410  MEOH      H1C            24.5393684192      -20.2092170267        3.0361373096  MEOH      1718            0.0000000000
     32667      2410  MEOH      LP1A           24.8812814634      -21.5539287487        1.4796352329  MEOH      1718            0.0000000000
     32668      2410  MEOH      LP1B           25.4507862115      -21.8601547852        1.5997978572  MEOH      1718            0.0000000000
     32669      2411  MEOH      C1             -2.1633149807       31.4076628131       -6.8549104434  MEOH      1719            0.0000000000
     32670      2411  MEOH      DC1            -2.1607232251       31.4327945287       -6.8575839129  MEOH      1719            0.0000000000
     32671      2411  MEOH      O1             -1.7858038987       32.7208174195       -7.2694467973  MEOH      1719            0.0000000000
     32672      2411  MEOH      DO1            -1.7880439297       32.7380952214       -7.2810318272  MEOH      1719            0.0000000000
     32673      2411  MEOH      HO1            -1.8967353258       33.2762806291       -6.4820111865  MEOH      1719            0.0000000000
     32674      2411  MEOH      HO2            -0.8979533170       32.6174622079       -7.6461947848  MEOH      1719            0.0000000000
     32675      2411  MEOH      H1A            -1.9992264898       30.6790688891       -7.6774351316  MEOH      1719            0.0000000000
     32676      2411  MEOH      H1B            -3.2367103827       31.3811705068       -6.5695309256  MEOH      1719            0.0000000000
     32677      2411  MEOH      H1C            -1.5477128801       31.0835220601       -5.9887188791  MEOH      1719            0.0000000000
     32678      2411  MEOH      LP1A           -1.4421304465       32.7671312657       -7.2220802912  MEOH      1719            0.0000000000
     32679      2411  MEOH      LP1B           -2.0639983283       32.8907294929       -7.3968742143  MEOH      1719            0.0000000000
     32680      2412  MEOH      C1             -4.1831897291       -4.0709415920       30.5916429611  MEOH      1720            0.0000000000
     32681      2412  MEOH      DC1            -4.1861193649       -4.0689732783       30.5793288758  MEOH      1720            0.0000000000
     32682      2412  MEOH      O1             -4.6553603379       -5.0804308523       31.4784768180  MEOH      1720            0.0000000000
     32683      2412  MEOH      DO1            -4.6548214959       -5.0911239612       31.4586040883  MEOH      1720            0.0000000000
     32684      2412  MEOH      HO1            -3.9697790292       -5.1902395043       32.1558395931  MEOH      1720            0.0000000000
     32685      2412  MEOH      HO2            -5.5376105402       -4.7882116402       31.7562222296  MEOH      1720            0.0000000000
     32686      2412  MEOH      H1A            -4.9455275490       -3.8815096809       29.8059728016  MEOH      1720            0.0000000000
     32687      2412  MEOH      H1B            -3.2285218307       -4.3934902302       30.1237833864  MEOH      1720            0.0000000000
     32688      2412  MEOH      H1C            -4.0305278235       -3.1210329103       31.1472406929  MEOH      1720            0.0000000000
     32689      2412  MEOH      LP1A           -4.8452602196       -4.9356869782       31.7343815774  MEOH      1720            0.0000000000
     32690      2412  MEOH      LP1B           -4.5543986060       -5.3958942316       31.3653857704  MEOH      1720            0.0000000000
     32691      2413  MEOH      C1              9.6604352262       30.6913141730        5.9174647489  MEOH      1721            0.0000000000
     32692      2413  MEOH      DC1             9.6705465340       30.6856481146        5.9141627713  MEOH      1721            0.0000000000
     32693      2413  MEOH      O1              9.2890495423       32.0701306071        5.9047370793  MEOH      1721            0.0000000000
     32694      2413  MEOH      DO1             9.3008758030       32.0696898581        5.9024922556  MEOH      1721            0.0000000000
     32695      2413  MEOH      HO1             8.3317652656       32.1028237760        5.7516424324  MEOH      1721            0.0000000000
     32696      2413  MEOH      HO2             9.6489616041       32.4426426824        6.7248578396  MEOH      1721            0.0000000000
     32697      2413  MEOH      H1A            10.7589627636       30.6099246806        6.0621506162  MEOH      1721            0.0000000000
     32698      2413  MEOH      H1B             9.3825906021       30.2167775130        4.9520952212  MEOH      1721            0.0000000000
     32699      2413  MEOH      H1C             9.1437967360       30.1633429646        6.7473153824  MEOH      1721            0.0000000000
     32700      2413  MEOH      LP1A            9.2111139024       32.1761107884        6.2290736902  MEOH      1721            0.0000000000
     32701      2413  MEOH      LP1B            9.3156540823       32.1982784777        5.5801291285  MEOH      1721            0.0000000000
     32702      2414  MEOH      C1            -23.7266330864      -21.6924480251      -22.8115507115  MEOH      1722            0.0000000000
     32703      2414  MEOH      DC1           -23.7285315274      -21.6978615330      -22.8222809666  MEOH      1722            0.0000000000
     32704      2414  MEOH      O1            -24.0683577290      -21.1841972487      -24.1009121585  MEOH      1722            0.0000000000
     32705      2414  MEOH      DO1           -24.0674703026      -21.1768831182      -24.1002078183  MEOH      1722            0.0000000000
     32706      2414  MEOH      HO1           -23.3157536252      -20.6582572681      -24.4137606838  MEOH      1722            0.0000000000
     32707      2414  MEOH      HO2           -24.3638029971      -21.9526820263      -24.6137895714  MEOH      1722            0.0000000000
     32708      2414  MEOH      H1A           -24.5816577726      -22.2556286069      -22.3801791578  MEOH      1722            0.0000000000
     32709      2414  MEOH      H1B           -23.4809943975      -20.8490291444      -22.1313836534  MEOH      1722            0.0000000000
     32710      2414  MEOH      H1C           -22.8531178846      -22.3750984263      -22.8842185995  MEOH      1722            0.0000000000
     32711      2414  MEOH      LP1A          -23.9729257148      -21.4122846709      -24.3486395459  MEOH      1722            0.0000000000
     32712      2414  MEOH      LP1B          -24.2312982106      -20.8761068856      -24.0688072108  MEOH      1722            0.0000000000
     32713      2415  MEOH      C1            -29.7380187694      -25.9967952930      -30.4545318932  MEOH      1723            0.0000000000
     32714      2415  MEOH      DC1           -29.7288728317      -25.9922373220      -30.4546048434  MEOH      1723            0.0000000000
     32715      2415  MEOH      O1            -30.3281101086      -27.0390161706      -31.2087782575  MEOH      1723            0.0000000000
     32716      2415  MEOH      DO1           -30.3241966691      -27.0369323903      -31.2163171685  MEOH      1723            0.0000000000
     32717      2415  MEOH      HO1           -31.2420649747      -27.1066793781      -30.8909603933  MEOH      1723            0.0000000000
     32718      2415  MEOH      HO2           -30.1332770736      -26.8520510274      -32.1404349130  MEOH      1723            0.0000000000
     32719      2415  MEOH      H1A           -28.6482218130      -25.9508204926      -30.6656003977  MEOH      1723            0.0000000000
     32720      2415  MEOH      H1B           -29.9036945141      -26.1836020752      -29.3719535938  MEOH      1723            0.0000000000
     32721      2415  MEOH      H1C           -30.2273572271      -25.0401653919      -30.7368935513  MEOH      1723            0.0000000000
     32722      2415  MEOH      LP1A          -30.4681527783      -26.9098228236      -31.5023717345  MEOH      1723            0.0000000000
     32723      2415  MEOH      LP1B          -30.2779893610      -27.3460371606      -31.0483849211  MEOH      1723            0.0000000000
     32724      2416  MEOH      C1              2.2033307059       27.8752791613        0.1173561993  MEOH      1724            0.0000000000
     32725      2416  MEOH      DC1             2.2027296916       27.8645823098        0.1255212213  MEOH      1724            0.0000000000
     32726      2416  MEOH      O1              2.7410349314       27.6670735229       -1.1909582232  MEOH      1724            0.0000000000
     32727      2416  MEOH      DO1             2.7416603884       27.6550758588       -1.1814940859  MEOH      1724            0.0000000000
     32728      2416  MEOH      HO1             2.7940909571       26.7169295255       -1.3788716150  MEOH      1724            0.0000000000
     32729      2416  MEOH      HO2             2.2583843149       28.2677329331       -1.7801582361  MEOH      1724            0.0000000000
     32730      2416  MEOH      H1A             2.2100614379       28.9612357767        0.3518213937  MEOH      1724            0.0000000000
     32731      2416  MEOH      H1B             2.8302194575       27.3603293364        0.8764070348  MEOH      1724            0.0000000000
     32732      2416  MEOH      H1C             1.1569715466       27.5051550769        0.1669714543  MEOH      1724            0.0000000000
     32733      2416  MEOH      LP1A            2.4828842699       27.6632942959       -1.4272714759  MEOH      1724            0.0000000000
     32734      2416  MEOH      LP1B            3.0901212211       27.6473422985       -1.1751645170  MEOH      1724            0.0000000000
     32735      2417  MEOH      C1             24.5836988981       24.9043489058       13.0178526342  MEOH      1725            0.0000000000
     32736      2417  MEOH      DC1            24.5872136445       24.9217593104       13.0129721298  MEOH      1725            0.0000000000
     32737      2417  MEOH      O1             23.4067632125       25.3666223667       13.6790767298  MEOH      1725            0.0000000000
     32738      2417  MEOH      DO1            23.4093953971       25.3767980651       13.6675037108  MEOH      1725            0.0000000000
     32739      2417  MEOH      HO1            23.2929811147       26.3218715295       13.5547679533  MEOH      1725            0.0000000000
     32740      2417  MEOH      HO2            22.6968624624       24.7507547783       13.4389766700  MEOH      1725            0.0000000000
     32741      2417  MEOH      H1A            24.7619445043       23.8446806766       13.3000808191  MEOH      1725            0.0000000000
     32742      2417  MEOH      H1B            25.4605081608       25.5144582987       13.3232917369  MEOH      1725            0.0000000000
     32743      2417  MEOH      H1C            24.4519300253       24.9472458054       11.9155288064  MEOH      1725            0.0000000000
     32744      2417  MEOH      LP1A           23.1317166265       25.3437293661       13.4638436327  MEOH      1725            0.0000000000
     32745      2417  MEOH      LP1B           23.4821679282       25.4563962862       14.0088566143  MEOH      1725            0.0000000000
     32746      2418  MEOH      C1             33.6885298104       30.5723184954       10.1812034236  MEOH      1726            0.0000000000
     32747      2418  MEOH      DC1            33.6869277234       30.5562860535       10.1845966077  MEOH      1726            0.0000000000
     32748      2418  MEOH      O1             33.6639992986       30.1658808164       11.5455801272  MEOH      1726            0.0000000000
     32749      2418  MEOH      DO1            33.6659872390       30.1421795686       11.5456701479  MEOH      1726            0.0000000000
     32750      2418  MEOH      HO1            34.4641931263       30.5429668354       11.9435700423  MEOH      1726            0.0000000000
     32751      2418  MEOH      HO2            32.8084018876       30.4751592702       11.8820320690  MEOH      1726            0.0000000000
     32752      2418  MEOH      H1A            32.7704312867       30.2200698351        9.6641570208  MEOH      1726            0.0000000000
     32753      2418  MEOH      H1B            34.5876686396       30.1495094506        9.6841089886  MEOH      1726            0.0000000000
     32754      2418  MEOH      H1C            33.7279978450       31.6811282633       10.1237214733  MEOH      1726            0.0000000000
     32755      2418  MEOH      LP1A           33.4898692396       30.4011668299       11.7374634626  MEOH      1726            0.0000000000
     32756      2418  MEOH      LP1B           33.8241198004       29.8567098205       11.5812833509  MEOH      1726            0.0000000000
     32757      2419  MEOH      C1             17.1924041990       -0.6312641739      -20.1932271388  MEOH      1727            0.0000000000
     32758      2419  MEOH      DC1            17.2072471487       -0.6523504406      -20.1989499134  MEOH      1727            0.0000000000
     32759      2419  MEOH      O1             16.4722810533       -1.7338373854      -20.7414451206  MEOH      1727            0.0000000000
     32760      2419  MEOH      DO1            16.4981982681       -1.7570537959      -20.7425615970  MEOH      1727            0.0000000000
     32761      2419  MEOH      HO1            16.7090297883       -1.9627306354      -21.6538364389  MEOH      1727            0.0000000000
     32762      2419  MEOH      HO2            15.8994105163       -2.1673144709      -20.0896652773  MEOH      1727            0.0000000000
     32763      2419  MEOH      H1A            16.5511399719       -0.0606866175      -19.4878602530  MEOH      1727            0.0000000000
     32764      2419  MEOH      H1B            17.5040326790        0.0753617420      -20.9919063644  MEOH      1727            0.0000000000
     32765      2419  MEOH      H1C            18.0615453428       -0.9984856900      -19.6066582750  MEOH      1727            0.0000000000
     32766      2419  MEOH      LP1A           16.6396223283       -2.0330509331      -20.6709600118  MEOH      1727            0.0000000000
     32767      2419  MEOH      LP1B           16.1782999551       -1.6208060094      -20.8940852921  MEOH      1727            0.0000000000
     32768      2420  MEOH      C1            -23.0836029944       25.1336701124       29.5780706265  MEOH      1728            0.0000000000
     32769      2420  MEOH      DC1           -23.0836935184       25.1349812799       29.5837741562  MEOH      1728            0.0000000000
     32770      2420  MEOH      O1            -22.9964293871       25.2101682136       31.0021630237  MEOH      1728            0.0000000000
     32771      2420  MEOH      DO1           -22.9887083385       25.2152776559       31.0121729186  MEOH      1728            0.0000000000
     32772      2420  MEOH      HO1           -22.6075509559       24.3710353886       31.2946175822  MEOH      1728            0.0000000000
     32773      2420  MEOH      HO2           -22.5698395827       26.0595014043       31.1959522648  MEOH      1728            0.0000000000
     32774      2420  MEOH      H1A           -23.6517337444       26.0019140306       29.1809548375  MEOH      1728            0.0000000000
     32775      2420  MEOH      H1B           -23.6046143336       24.1983993736       29.2811921503  MEOH      1728            0.0000000000
     32776      2420  MEOH      H1C           -22.0638027486       25.1422517191       29.1373271458  MEOH      1728            0.0000000000
     32777      2420  MEOH      LP1A          -22.6906621329       25.3523569396       31.0959113700  MEOH      1728            0.0000000000
     32778      2420  MEOH      LP1B          -23.2921785935       25.0913166854       31.1467545904  MEOH      1728            0.0000000000
     32779      2421  MEOH      C1             24.3435155159      -20.7142286716       26.1567109598  MEOH      1729            0.0000000000
     32780      2421  MEOH      DC1            24.3531399566      -20.7011570363       26.1571375603  MEOH      1729            0.0000000000
     32781      2421  MEOH      O1             23.4929034068      -21.7801011297       26.5745941050  MEOH      1729            0.0000000000
     32782      2421  MEOH      DO1            23.4970882691      -21.7772122602       26.5859371559  MEOH      1729            0.0000000000
     32783      2421  MEOH      HO1            23.5547596351      -21.8528134327       27.5398851128  MEOH      1729            0.0000000000
     32784      2421  MEOH      HO2            22.6378970051      -21.6265878235       26.1429719115  MEOH      1729            0.0000000000
     32785      2421  MEOH      H1A            24.2730574638      -20.5959097085       25.0542785193  MEOH      1729            0.0000000000
     32786      2421  MEOH      H1B            25.3939102049      -20.9652800772       26.4174123032  MEOH      1729            0.0000000000
     32787      2421  MEOH      H1C            24.0281953602      -19.7672352597       26.6446634963  MEOH      1729            0.0000000000
     32788      2421  MEOH      LP1A           23.1704194354      -21.6587952398       26.6361487088  MEOH      1729            0.0000000000
     32789      2421  MEOH      LP1B           23.6696048322      -22.0822123450       26.5722660473  MEOH      1729            0.0000000000
     32790      2422  MEOH      C1              3.9385948606       23.0657537164       -1.9058947716  MEOH      1730            0.0000000000
     32791      2422  MEOH      DC1             3.9349983224       23.0631308568       -1.9033859981  MEOH      1730            0.0000000000
     32792      2422  MEOH      O1              2.7523381696       23.8605111590       -1.8492414313  MEOH      1730            0.0000000000
     32793      2422  MEOH      DO1             2.7511778892       23.8609185303       -1.8474629423  MEOH      1730            0.0000000000
     32794      2422  MEOH      HO1             2.3562857575       23.7342576625       -0.9728268358  MEOH      1730            0.0000000000
     32795      2422  MEOH      HO2             3.0124360209       24.7462341265       -2.1471406300  MEOH      1730            0.0000000000
     32796      2422  MEOH      H1A             4.3701471073       23.1155278491       -2.9284436431  MEOH      1730            0.0000000000
     32797      2422  MEOH      H1B             3.7008957297       22.0054315919       -1.6745138835  MEOH      1730            0.0000000000
     32798      2422  MEOH      H1C             4.6887190711       23.4499738774       -1.1820097406  MEOH      1730            0.0000000000
     32799      2422  MEOH      LP1A            2.8290527854       24.1820562400       -1.7342473940  MEOH      1730            0.0000000000
     32800      2422  MEOH      LP1B            2.4787735852       23.6757119676       -1.9654811708  MEOH      1730            0.0000000000
     32801      2423  MEOH      C1             -9.2177836854        7.8122022110       11.5645051502  MEOH      1731            0.0000000000
     32802      2423  MEOH      DC1            -9.2157485204        7.8310217464       11.5726018129  MEOH      1731            0.0000000000
     32803      2423  MEOH      O1             -9.1443197014        8.7837857265       12.6088292881  MEOH      1731            0.0000000000
     32804      2423  MEOH      DO1            -9.1325279779        8.7888192877       12.6139937341  MEOH      1731            0.0000000000
     32805      2423  MEOH      HO1            -9.2811832374        8.3327655841       13.4566200664  MEOH      1731            0.0000000000
     32806      2423  MEOH      HO2            -8.3744541798        9.3455163894       12.4280926245  MEOH      1731            0.0000000000
     32807      2423  MEOH      H1A            -9.3632939699        8.3185026334       10.5863397041  MEOH      1731            0.0000000000
     32808      2423  MEOH      H1B           -10.0748138470        7.1243124656       11.7276860326  MEOH      1731            0.0000000000
     32809      2423  MEOH      H1C            -8.2841957314        7.2110716315       11.5274031255  MEOH      1731            0.0000000000
     32810      2423  MEOH      LP1A           -8.8133609245        8.8179965880       12.7174382425  MEOH      1731            0.0000000000
     32811      2423  MEOH      LP1B           -9.4610608624        8.9206571913       12.6674913630  MEOH      1731            0.0000000000
     32812      2424  MEOH      C1            -21.4835911767       -1.5208991398       27.1216736517  MEOH      1732            0.0000000000
     32813      2424  MEOH      DC1           -21.5062398291       -1.5293436718       27.1306700783  MEOH      1732            0.0000000000
     32814      2424  MEOH      O1            -22.6332017851       -1.9923662164       27.8295253363  MEOH      1732            0.0000000000
     32815      2424  MEOH      DO1           -22.6575643908       -2.0058854199       27.8497946959  MEOH      1732            0.0000000000
     32816      2424  MEOH      HO1           -23.3343406183       -1.3940306867       27.5273682075  MEOH      1732            0.0000000000
     32817      2424  MEOH      HO2           -22.6887243824       -2.9374215740       27.6181308855  MEOH      1732            0.0000000000
     32818      2424  MEOH      H1A           -20.6033776914       -2.1727293366       27.3078526391  MEOH      1732            0.0000000000
     32819      2424  MEOH      H1B           -21.2240230606       -0.4874906430       27.4363358068  MEOH      1732            0.0000000000
     32820      2424  MEOH      H1C           -21.7047921391       -1.5155042351       26.0329303253  MEOH      1732            0.0000000000
     32821      2424  MEOH      LP1A          -22.7946019694       -2.2410988604       27.6435628339  MEOH      1732            0.0000000000
     32822      2424  MEOH      LP1B          -22.6578734479       -1.8307000753       28.1389689788  MEOH      1732            0.0000000000
     32823      2425  MEOH      C1              1.6845538592      -36.5481817315       24.4607408353  MEOH      1733            0.0000000000
     32824      2425  MEOH      DC1             1.6828106830      -36.5439154100       24.4729800230  MEOH      1733            0.0000000000
     32825      2425  MEOH      O1              3.1109355346      -36.5563810630       24.3868854510  MEOH      1733            0.0000000000
     32826      2425  MEOH      DO1             3.1105342384      -36.5522409526       24.3914610504  MEOH      1733            0.0000000000
     32827      2425  MEOH      HO1             3.4642536360      -36.5435543879       25.2901582763  MEOH      1733            0.0000000000
     32828      2425  MEOH      HO2             3.3321505564      -37.2866469496       23.7879900938  MEOH      1733            0.0000000000
     32829      2425  MEOH      H1A             1.2612369287      -36.3889260622       23.4459692313  MEOH      1733            0.0000000000
     32830      2425  MEOH      H1B             1.3340801268      -35.7446283675       25.1432297775  MEOH      1733            0.0000000000
     32831      2425  MEOH      H1C             1.3201748218      -37.5407320830       24.8019046046  MEOH      1733            0.0000000000
     32832      2425  MEOH      LP1A            3.2285676207      -36.8859548210       24.3802650008  MEOH      1733            0.0000000000
     32833      2425  MEOH      LP1B            3.2317987393      -36.2283635639       24.3696631960  MEOH      1733            0.0000000000
     32834      2426  MEOH      C1              3.6234723082       21.4701333865        5.7643719547  MEOH      1734            0.0000000000
     32835      2426  MEOH      DC1             3.6224849789       21.4609215974        5.7484614215  MEOH      1734            0.0000000000
     32836      2426  MEOH      O1              3.3257542837       22.8215854031        5.4203076313  MEOH      1734            0.0000000000
     32837      2426  MEOH      DO1             3.3178838804       22.8139142844        5.4051039969  MEOH      1734            0.0000000000
     32838      2426  MEOH      HO1             3.1252577771       23.2673716236        6.2581475900  MEOH      1734            0.0000000000
     32839      2426  MEOH      HO2             4.0941908926       23.1246587361        4.9118278049  MEOH      1734            0.0000000000
     32840      2426  MEOH      H1A             3.9553802293       20.9156176798        4.8606737399  MEOH      1734            0.0000000000
     32841      2426  MEOH      H1B             2.7266363732       20.9723737546        6.1912696643  MEOH      1734            0.0000000000
     32842      2426  MEOH      H1C             4.4368933552       21.4536561702        6.5209403274  MEOH      1734            0.0000000000
     32843      2426  MEOH      LP1A            3.6191313333       23.0124513913        5.4200224969  MEOH      1734            0.0000000000
     32844      2426  MEOH      LP1B            2.9841839982       22.8551942432        5.3517497292  MEOH      1734            0.0000000000
     32845      2427  MEOH      C1             31.0800309961        1.8262973930      -27.2546412916  MEOH      1735            0.0000000000
     32846      2427  MEOH      DC1            31.0817922135        1.8308833428      -27.2592072265  MEOH      1735            0.0000000000
     32847      2427  MEOH      O1             31.4248312660        3.2050977975      -27.1293597800  MEOH      1735            0.0000000000
     32848      2427  MEOH      DO1            31.4236365264        3.2069599269      -27.1222561963  MEOH      1735            0.0000000000
     32849      2427  MEOH      HO1            31.2206418624        3.4811759101      -26.2221731593  MEOH      1735            0.0000000000
     32850      2427  MEOH      HO2            32.3233436867        3.2812429300      -27.4868193562  MEOH      1735            0.0000000000
     32851      2427  MEOH      H1A            31.2689100498        1.5042864819      -28.3010421117  MEOH      1735            0.0000000000
     32852      2427  MEOH      H1B            30.0005130294        1.6847898613      -27.0334228939  MEOH      1735            0.0000000000
     32853      2427  MEOH      H1C            31.6794548088        1.2030788443      -26.5570663968  MEOH      1735            0.0000000000
     32854      2427  MEOH      LP1A           31.7590566148        3.2363874116      -27.0302922461  MEOH      1735            0.0000000000
     32855      2427  MEOH      LP1B           31.1518951576        3.4053101530      -27.2183591814  MEOH      1735            0.0000000000
     32856      2428  MEOH      C1             31.4082383671       35.9864174099      -13.7395668419  MEOH      1736            0.0000000000
     32857      2428  MEOH      DC1            31.3890402937       35.9857547181      -13.7501106007  MEOH      1736            0.0000000000
     32858      2428  MEOH      O1             32.5982862880       36.5739765316      -14.2741445855  MEOH      1736            0.0000000000
     32859      2428  MEOH      DO1            32.5865488701       36.5720019490      -14.2881701821  MEOH      1736            0.0000000000
     32860      2428  MEOH      HO1            32.9206083261       37.1833628327      -13.5917540523  MEOH      1736            0.0000000000
     32861      2428  MEOH      HO2            33.1726258324       35.8308495116      -14.5166241133  MEOH      1736            0.0000000000
     32862      2428  MEOH      H1A            31.0531424449       35.1826153455      -14.4193683778  MEOH      1736            0.0000000000
     32863      2428  MEOH      H1B            30.6046491680       36.7477481267      -13.6450103047  MEOH      1736            0.0000000000
     32864      2428  MEOH      H1C            31.6183173992       35.5594307971      -12.7356394367  MEOH      1736            0.0000000000
     32865      2428  MEOH      LP1A           32.8761213317       36.3777103731      -14.1917596140  MEOH      1736            0.0000000000
     32866      2428  MEOH      LP1B           32.5183095398       36.8623940664      -14.4555806495  MEOH      1736            0.0000000000
     32867      2429  MEOH      C1            -28.5596735665      -16.1236164296       32.3747678956  MEOH      1737            0.0000000000
     32868      2429  MEOH      DC1           -28.5652177433      -16.1219867109       32.3693983689  MEOH      1737            0.0000000000
     32869      2429  MEOH      O1            -28.2296803099      -15.6869275369       33.6915296587  MEOH      1737            0.0000000000
     32870      2429  MEOH      DO1           -28.2362670085      -15.6854094173       33.6896948914  MEOH      1737            0.0000000000
     32871      2429  MEOH      HO1           -27.3596852760      -16.0602720201       33.9027701324  MEOH      1737            0.0000000000
     32872      2429  MEOH      HO2           -28.3609885498      -14.7258599713       33.6942280940  MEOH      1737            0.0000000000
     32873      2429  MEOH      H1A           -29.5833391438      -15.7824620931       32.1101105572  MEOH      1737            0.0000000000
     32874      2429  MEOH      H1B           -28.5304395561      -17.2338667612       32.3462973016  MEOH      1737            0.0000000000
     32875      2429  MEOH      H1C           -27.8348355902      -15.7097342567       31.6415336526  MEOH      1737            0.0000000000
     32876      2429  MEOH      LP1A          -28.0618830609      -15.3800997579       33.6773593642  MEOH      1737            0.0000000000
     32877      2429  MEOH      LP1B          -28.3520280070      -15.9147518291       33.9273837087  MEOH      1737            0.0000000000
     32878      2430  MEOH      C1             -3.4998534307        1.9587581867      -13.2664749872  MEOH      1738            0.0000000000
     32879      2430  MEOH      DC1            -3.4837838048        1.9528966582      -13.2743799672  MEOH      1738            0.0000000000
     32880      2430  MEOH      O1             -3.5880296600        0.8630899837      -12.3493743531  MEOH      1738            0.0000000000
     32881      2430  MEOH      DO1            -3.5719570518        0.8429665795      -12.3621871879  MEOH      1738            0.0000000000
     32882      2430  MEOH      HO1            -2.6840486564        0.6095477366      -12.1055820753  MEOH      1738            0.0000000000
     32883      2430  MEOH      HO2            -4.1676905870        1.1848747228      -11.6413151808  MEOH      1738            0.0000000000
     32884      2430  MEOH      H1A            -4.5117760157        2.3774605628      -13.4536166517  MEOH      1738            0.0000000000
     32885      2430  MEOH      H1B            -3.0768628746        1.6042413673      -14.2306937457  MEOH      1738            0.0000000000
     32886      2430  MEOH      H1C            -2.8536859214        2.7575260435      -12.8436766162  MEOH      1738            0.0000000000
     32887      2430  MEOH      LP1A           -3.6097279352        0.9830470404      -12.0212897765  MEOH      1738            0.0000000000
     32888      2430  MEOH      LP1B           -3.5925322721        0.5602412048      -12.5247663245  MEOH      1738            0.0000000000
     32889      2431  MEOH      C1            -12.2600565081       35.7051830984       19.3549226761  MEOH      1739            0.0000000000
     32890      2431  MEOH      DC1           -12.2746813673       35.7183631090       19.3654547192  MEOH      1739            0.0000000000
     32891      2431  MEOH      O1            -13.5026213867       35.2489304356       18.8291208307  MEOH      1739            0.0000000000
     32892      2431  MEOH      DO1           -13.5087418271       35.2496507181       18.8250031648  MEOH      1739            0.0000000000
     32893      2431  MEOH      HO1           -13.9202410206       34.7205347054       19.5271837173  MEOH      1739            0.0000000000
     32894      2431  MEOH      HO2           -13.9422983269       36.0304176049       18.4591721935  MEOH      1739            0.0000000000
     32895      2431  MEOH      H1A           -11.7288491920       36.3128775333       18.5914783347  MEOH      1739            0.0000000000
     32896      2431  MEOH      H1B           -11.5935618005       34.8506430568       19.5996002647  MEOH      1739            0.0000000000
     32897      2431  MEOH      H1C           -12.4429130062       36.3131247703       20.2666745199  MEOH      1739            0.0000000000
     32898      2431  MEOH      LP1A          -13.7540166227       35.4831703230       18.8956949278  MEOH      1739            0.0000000000
     32899      2431  MEOH      LP1B          -13.4579093402       34.9434292955       18.6642879264  MEOH      1739            0.0000000000
     32900      2432  MEOH      C1            -30.9785924209       26.8328520328       21.8477880883  MEOH      1740            0.0000000000
     32901      2432  MEOH      DC1           -30.9777547749       26.8361574185       21.8456816025  MEOH      1740            0.0000000000
     32902      2432  MEOH      O1            -32.3550410812       27.2078189047       21.8034357873  MEOH      1740            0.0000000000
     32903      2432  MEOH      DO1           -32.3584224539       27.2104780762       21.8061682924  MEOH      1740            0.0000000000
     32904      2432  MEOH      HO1           -32.8619148205       26.3837155079       21.7339188479  MEOH      1740            0.0000000000
     32905      2432  MEOH      HO2           -32.4976154664       27.8266314219       22.5366776391  MEOH      1740            0.0000000000
     32906      2432  MEOH      H1A           -30.3362261784       27.7377314567       21.9014522165  MEOH      1740            0.0000000000
     32907      2432  MEOH      H1B           -30.7120540463       26.2459627806       20.9428906892  MEOH      1740            0.0000000000
     32908      2432  MEOH      H1C           -30.7990071982       26.2056052773       22.7470275761  MEOH      1740            0.0000000000
     32909      2432  MEOH      LP1A          -32.4844959918       27.2266678429       22.1280681080  MEOH      1740            0.0000000000
     32910      2432  MEOH      LP1B          -32.4534826204       27.2629252992       21.4721163816  MEOH      1740            0.0000000000
     32911      2433  MEOH      C1             28.4643201839       -8.2603889609       15.6257094261  MEOH      1741            0.0000000000
     32912      2433  MEOH      DC1            28.4688390984       -8.2707427653       15.6115481772  MEOH      1741            0.0000000000
     32913      2433  MEOH      O1             27.6430629172       -7.6083425812       16.5853377148  MEOH      1741            0.0000000000
     32914      2433  MEOH      DO1            27.6436066376       -7.6052015357       16.5678396149  MEOH      1741            0.0000000000
     32915      2433  MEOH      HO1            26.9116507348       -7.1802533826       16.1134522857  MEOH      1741            0.0000000000
     32916      2433  MEOH      HO2            27.4681524910       -8.2692631434       17.2734440681  MEOH      1741            0.0000000000
     32917      2433  MEOH      H1A            29.3820795016       -8.6311796928       16.1302419510  MEOH      1741            0.0000000000
     32918      2433  MEOH      H1B            28.7687963124       -7.5333852953       14.8427145619  MEOH      1741            0.0000000000
     32919      2433  MEOH      H1C            27.9193734999       -9.1099473107       15.1613768693  MEOH      1741            0.0000000000
     32920      2433  MEOH      LP1A           27.3971533443       -7.8284950266       16.7017910648  MEOH      1741            0.0000000000
     32921      2433  MEOH      LP1B           27.7575919770       -7.2819794306       16.6389118539  MEOH      1741            0.0000000000
     32922      2434  MEOH      C1             24.8826808157        9.4289931596       10.9201590804  MEOH      1742            0.0000000000
     32923      2434  MEOH      DC1            24.8727790869        9.4232061200       10.9074384143  MEOH      1742            0.0000000000
     32924      2434  MEOH      O1             23.7256926707        8.8409035267       10.3264029934  MEOH      1742            0.0000000000
     32925      2434  MEOH      DO1            23.7259460208        8.8376431012       10.3079110986  MEOH      1742            0.0000000000
     32926      2434  MEOH      HO1            23.3556033764        8.2492760550       11.0001320554  MEOH      1742            0.0000000000
     32927      2434  MEOH      HO2            23.2058783609        9.5800922061        9.9738506132  MEOH      1742            0.0000000000
     32928      2434  MEOH      H1A            25.3935660880       10.0805861504       10.1793866370  MEOH      1742            0.0000000000
     32929      2434  MEOH      H1B            25.5951676971        8.6365666798       11.2343942158  MEOH      1742            0.0000000000
     32930      2434  MEOH      H1C            24.5973693731       10.0365456483       11.8054829504  MEOH      1742            0.0000000000
     32931      2434  MEOH      LP1A           23.4451241170        9.0411726885       10.3870128070  MEOH      1742            0.0000000000
     32932      2434  MEOH      LP1B           23.8141052832        8.5479249154       10.1565597031  MEOH      1742            0.0000000000
     32933      2435  MEOH      C1             36.9295369565       23.3591226778       -0.1062657005  MEOH      1743            0.0000000000
     32934      2435  MEOH      DC1            36.9257786571       23.3684295574       -0.1054936016  MEOH      1743            0.0000000000
     32935      2435  MEOH      O1             35.6364962467       22.9667591729        0.3520817056  MEOH      1743            0.0000000000
     32936      2435  MEOH      DO1            35.6301405466       22.9645852803        0.3487325100  MEOH      1743            0.0000000000
     32937      2435  MEOH      HO1            35.1437939748       23.7800038546        0.5438564664  MEOH      1743            0.0000000000
     32938      2435  MEOH      HO2            35.2962541145       22.3495395235       -0.3143829954  MEOH      1743            0.0000000000
     32939      2435  MEOH      H1A            37.5449867520       22.4542641923       -0.2980303250  MEOH      1743            0.0000000000
     32940      2435  MEOH      H1B            37.4256314408       23.9846514256        0.6663435465  MEOH      1743            0.0000000000
     32941      2435  MEOH      H1C            36.8376018015       23.9359105548       -1.0513501802  MEOH      1743            0.0000000000
     32942      2435  MEOH      LP1A           35.4181374643       22.9338273684        0.0805399253  MEOH      1743            0.0000000000
     32943      2435  MEOH      LP1B           35.6408057277       22.9228211641        0.6992860831  MEOH      1743            0.0000000000
     32944      2436  MEOH      C1            -27.5754922801      -28.9743712904      -31.2630593944  MEOH      1744            0.0000000000
     32945      2436  MEOH      DC1           -27.5723458759      -28.9742445507      -31.2630394931  MEOH      1744            0.0000000000
     32946      2436  MEOH      O1            -26.7238916640      -29.9046997615      -30.5867411258  MEOH      1744            0.0000000000
     32947      2436  MEOH      DO1           -26.7241217994      -29.8993299255      -30.5826199898  MEOH      1744            0.0000000000
     32948      2436  MEOH      HO1           -27.0484987681      -30.8024346038      -30.7587945539  MEOH      1744            0.0000000000
     32949      2436  MEOH      HO2           -25.8180756460      -29.6643091750      -30.8369604446  MEOH      1744            0.0000000000
     32950      2436  MEOH      H1A           -27.2359248923      -27.9374869385      -31.0535699440  MEOH      1744            0.0000000000
     32951      2436  MEOH      H1B           -28.6202714507      -29.0804556212      -30.9004251417  MEOH      1744            0.0000000000
     32952      2436  MEOH      H1C           -27.5378742910      -29.1409293425      -32.3608591496  MEOH      1744            0.0000000000
     32953      2436  MEOH      LP1A          -26.4577455001      -29.9964149681      -30.7947183850  MEOH      1744            0.0000000000
     32954      2436  MEOH      LP1B          -26.8412238968      -29.9599190704      -30.2616504076  MEOH      1744            0.0000000000
     32955      2437  MEOH      C1             -0.2492976584       -7.8210931918      -17.6685513024  MEOH      1745            0.0000000000
     32956      2437  MEOH      DC1            -0.2469511464       -7.8240875292      -17.6695218626  MEOH      1745            0.0000000000
     32957      2437  MEOH      O1             -0.6390563615       -9.1960075385      -17.7260086061  MEOH      1745            0.0000000000
     32958      2437  MEOH      DO1            -0.6275233046       -9.1952439204      -17.7183307259  MEOH      1745            0.0000000000
     32959      2437  MEOH      HO1            -1.2298458730       -9.3854793047      -16.9803758520  MEOH      1745            0.0000000000
     32960      2437  MEOH      HO2            -0.9641302718       -9.3392516732      -18.6286204112  MEOH      1745            0.0000000000
     32961      2437  MEOH      H1A             0.4509712696       -7.6063377471      -18.5039102242  MEOH      1745            0.0000000000
     32962      2437  MEOH      H1B             0.2660549427       -7.5985201468      -16.7098052796  MEOH      1745            0.0000000000
     32963      2437  MEOH      H1C            -1.1403581959       -7.1648667131      -17.7670344437  MEOH      1745            0.0000000000
     32964      2437  MEOH      LP1A           -0.9279947852       -9.2304966253      -17.9204953415  MEOH      1745            0.0000000000
     32965      2437  MEOH      LP1B           -0.4090406770       -9.3930659210      -17.5506210959  MEOH      1745            0.0000000000
     32966      2438  MEOH      C1             -2.7536220884       -9.1080270078      -22.4309761698  MEOH      1746            0.0000000000
     32967      2438  MEOH      DC1            -2.7478893961       -9.1045198530      -22.4350356703  MEOH      1746            0.0000000000
     32968      2438  MEOH      O1             -3.8119245976      -10.0505169385      -22.3446938329  MEOH      1746            0.0000000000
     32969      2438  MEOH      DO1            -3.8162887650      -10.0404160424      -22.3475799627  MEOH      1746            0.0000000000
     32970      2438  MEOH      HO1            -4.3263184100       -9.9928798660      -23.1650455707  MEOH      1746            0.0000000000
     32971      2438  MEOH      HO2            -3.3833499433      -10.8917349674      -22.1220371596  MEOH      1746            0.0000000000
     32972      2438  MEOH      H1A            -2.1480224172       -9.1600267427      -21.5009944142  MEOH      1746            0.0000000000
     32973      2438  MEOH      H1B            -3.1582362022       -8.0799767552      -22.5481132631  MEOH      1746            0.0000000000
     32974      2438  MEOH      H1C            -2.1140655397       -9.3539823104      -23.3055014186  MEOH      1746            0.0000000000
     32975      2438  MEOH      LP1A           -3.7067537935      -10.3603207642      -22.4690348620  MEOH      1746            0.0000000000
     32976      2438  MEOH      LP1B           -4.0918999882       -9.9027963766      -22.1953873820  MEOH      1746            0.0000000000
     32977      2439  MEOH      C1             17.9296877192        8.1740559937       17.6293563454  MEOH      1747            0.0000000000
     32978      2439  MEOH      DC1            17.9360132770        8.1895886389       17.6258312612  MEOH      1747            0.0000000000
     32979      2439  MEOH      O1             18.3894686952        7.7029621024       16.3718434838  MEOH      1747            0.0000000000
     32980      2439  MEOH      DO1            18.3947519194        7.7189841763       16.3633001704  MEOH      1747            0.0000000000
     32981      2439  MEOH      HO1            17.9494507060        6.8496439614       16.2335238520  MEOH      1747            0.0000000000
     32982      2439  MEOH      HO2            18.2529922271        8.4346906755       15.7498728504  MEOH      1747            0.0000000000
     32983      2439  MEOH      H1A            18.5059792331        9.0794428143       17.9165562689  MEOH      1747            0.0000000000
     32984      2439  MEOH      H1B            18.0767542524        7.3916640997       18.4043114158  MEOH      1747            0.0000000000
     32985      2439  MEOH      H1C            16.8454818132        8.4109844352       17.5775541478  MEOH      1747            0.0000000000
     32986      2439  MEOH      LP1A           18.1813592890        7.8210342207       16.1164037652  MEOH      1747            0.0000000000
     32987      2439  MEOH      LP1B           18.6815902950        7.5148471596       16.4140067287  MEOH      1747            0.0000000000
     32988      2440  MEOH      C1            -23.5236239449       32.3427828474      -21.5650795474  MEOH      1748            0.0000000000
     32989      2440  MEOH      DC1           -23.5074568921       32.3257750875      -21.5573330657  MEOH      1748            0.0000000000
     32990      2440  MEOH      O1            -23.6301676688       33.5134886865      -20.7596780344  MEOH      1748            0.0000000000
     32991      2440  MEOH      DO1           -23.6103696949       33.4981236515      -20.7506681168  MEOH      1748            0.0000000000
     32992      2440  MEOH      HO1           -24.5463829729       33.8223224728      -20.8375960045  MEOH      1748            0.0000000000
     32993      2440  MEOH      HO2           -23.2158922141       33.3088719554      -19.9067959552  MEOH      1748            0.0000000000
     32994      2440  MEOH      H1A           -22.4498177671       32.1113789198      -21.7315533157  MEOH      1748            0.0000000000
     32995      2440  MEOH      H1B           -24.0219013599       32.5150922239      -22.5430110872  MEOH      1748            0.0000000000
     32996      2440  MEOH      H1C           -24.0109832674       31.4828863278      -21.0577533522  MEOH      1748            0.0000000000
     32997      2440  MEOH      LP1A          -23.7180108000       33.4260230710      -20.4323657211  MEOH      1748            0.0000000000
     32998      2440  MEOH      LP1B          -23.5491632506       33.7966550379      -20.9487682289  MEOH      1748            0.0000000000
     32999      2441  MEOH      C1             22.7048437457       28.4798916127       19.2433666247  MEOH      1749            0.0000000000
     33000      2441  MEOH      DC1            22.7046806145       28.4681576406       19.2258886217  MEOH      1749            0.0000000000
     33001      2441  MEOH      O1             21.3134603690       28.5144088241       19.5583230906  MEOH      1749            0.0000000000
     33002      2441  MEOH      DO1            21.3193389824       28.5097659000       19.5463528261  MEOH      1749            0.0000000000
     33003      2441  MEOH      HO1            21.2105959400       29.0076579022       20.3871923547  MEOH      1749            0.0000000000
     33004      2441  MEOH      HO2            20.8591481475       28.8011874426       18.7506979118  MEOH      1749            0.0000000000
     33005      2441  MEOH      H1A            22.8819908398       27.8161529325       18.3702166540  MEOH      1749            0.0000000000
     33006      2441  MEOH      H1B            23.2863967998       28.1128252036       20.1159371365  MEOH      1749            0.0000000000
     33007      2441  MEOH      H1C            23.0543590489       29.5000735207       18.9761795591  MEOH      1749            0.0000000000
     33008      2441  MEOH      LP1A           21.1639834723       28.7938279582       19.4097242856  MEOH      1749            0.0000000000
     33009      2441  MEOH      LP1B           21.2272014768       28.2347412786       19.7502748229  MEOH      1749            0.0000000000
     33010      2442  MEOH      C1             29.6066174491      -34.0343156133       34.7276395815  MEOH      1750            0.0000000000
     33011      2442  MEOH      DC1            29.6063139822      -34.0317521423       34.7339987249  MEOH      1750            0.0000000000
     33012      2442  MEOH      O1             29.4002244740      -33.8544964021       33.3248724148  MEOH      1750            0.0000000000
     33013      2442  MEOH      DO1            29.3998742285      -33.8493621560       33.3283238749  MEOH      1750            0.0000000000
     33014      2442  MEOH      HO1            28.4482426940      -33.7412152761       33.1772306959  MEOH      1750            0.0000000000
     33015      2442  MEOH      HO2            30.0303921442      -33.1725137018       33.0443580556  MEOH      1750            0.0000000000
     33016      2442  MEOH      H1A            30.6703008851      -34.2972006511       34.9114601652  MEOH      1750            0.0000000000
     33017      2442  MEOH      H1B            28.9638678792      -34.8586807190       35.1039588128  MEOH      1750            0.0000000000
     33018      2442  MEOH      H1C            29.3669217810      -33.0946281765       35.2697230694  MEOH      1750            0.0000000000
     33019      2442  MEOH      LP1A           29.4215634134      -33.5148014012       33.2433128905  MEOH      1750            0.0000000000
     33020      2442  MEOH      LP1B           29.3556131368      -34.1650135561       33.1696663400  MEOH      1750            0.0000000000
     33021      2443  MEOH      C1            -14.1505667292       35.5850011510       -7.3046891189  MEOH      1751            0.0000000000
     33022      2443  MEOH      DC1           -14.1391333179       35.6113102688       -7.3032947751  MEOH      1751            0.0000000000
     33023      2443  MEOH      O1            -13.0123805371       36.3773252516       -7.6293773472  MEOH      1751            0.0000000000
     33024      2443  MEOH      DO1           -13.0048551264       36.3908387804       -7.6449672301  MEOH      1751            0.0000000000
     33025      2443  MEOH      HO1           -12.9954076329       37.1552595470       -7.0502140261  MEOH      1751            0.0000000000
     33026      2443  MEOH      HO2           -12.2558405155       35.7735074845       -7.6922367185  MEOH      1751            0.0000000000
     33027      2443  MEOH      H1A           -14.2388064234       34.7523361049       -8.0348970882  MEOH      1751            0.0000000000
     33028      2443  MEOH      H1B           -15.0814359814       36.1894503923       -7.3541315080  MEOH      1751            0.0000000000
     33029      2443  MEOH      H1C           -14.0471768496       35.1660536301       -6.2809144808  MEOH      1751            0.0000000000
     33030      2443  MEOH      LP1A          -12.7362567820       36.2729100973       -7.4413530205  MEOH      1751            0.0000000000
     33031      2443  MEOH      LP1B          -13.0942559717       36.6073782173       -7.8801203355  MEOH      1751            0.0000000000
     33032      2444  MEOH      C1            -34.2246085462       -7.7271492956      -29.8455167959  MEOH      1752            0.0000000000
     33033      2444  MEOH      DC1           -34.2337569827       -7.7216409663      -29.8484543481  MEOH      1752            0.0000000000
     33034      2444  MEOH      O1            -34.2157340293       -7.4336151178      -28.4515333831  MEOH      1752            0.0000000000
     33035      2444  MEOH      DO1           -34.2302054608       -7.4172137637      -28.4596679270  MEOH      1752            0.0000000000
     33036      2444  MEOH      HO1           -34.0172680915       -8.2469448374      -27.9616292698  MEOH      1752            0.0000000000
     33037      2444  MEOH      HO2           -33.6246240818       -6.6724168386      -28.3416870821  MEOH      1752            0.0000000000
     33038      2444  MEOH      H1A           -34.4587681782       -6.7974865035      -30.4069590105  MEOH      1752            0.0000000000
     33039      2444  MEOH      H1B           -34.9912643379       -8.5005112237      -30.0656786116  MEOH      1752            0.0000000000
     33040      2444  MEOH      H1C           -33.2248034986       -8.0943213900      -30.1615793241  MEOH      1752            0.0000000000
     33041      2444  MEOH      LP1A          -33.8950025054       -7.3349954729      -28.3520072296  MEOH      1752            0.0000000000
     33042      2444  MEOH      LP1B          -34.5374313389       -7.4719272411      -28.3190833087  MEOH      1752            0.0000000000
     33043      2445  MEOH      C1              2.2067768245       19.3251160420      -11.9808397282  MEOH      1753            0.0000000000
     33044      2445  MEOH      DC1             2.2138452414       19.3195875919      -11.9868920797  MEOH      1753            0.0000000000
     33045      2445  MEOH      O1              1.5024597039       18.9697444313      -13.1723546385  MEOH      1753            0.0000000000
     33046      2445  MEOH      DO1             1.5052199137       18.9681881364      -13.1831554384  MEOH      1753            0.0000000000
     33047      2445  MEOH      HO1             0.5583530350       19.0678911110      -12.9725301459  MEOH      1753            0.0000000000
     33048      2445  MEOH      HO2             1.9239881504       19.4538178622      -13.8996005958  MEOH      1753            0.0000000000
     33049      2445  MEOH      H1A             3.2874519049       19.0954281027      -12.0979115947  MEOH      1753            0.0000000000
     33050      2445  MEOH      H1B             1.8053976122       18.7582561503      -11.1137263613  MEOH      1753            0.0000000000
     33051      2445  MEOH      H1C             2.0940412241       20.4130552548      -11.7859039564  MEOH      1753            0.0000000000
     33052      2445  MEOH      LP1A            1.4598101484       19.2519861692      -13.3748901090  MEOH      1753            0.0000000000
     33053      2445  MEOH      LP1B            1.4370896067       18.6259114782      -13.1747317763  MEOH      1753            0.0000000000
     33054      2446  MEOH      C1            -28.0863073183       29.2423465627      -33.0014226452  MEOH      1754            0.0000000000
     33055      2446  MEOH      DC1           -28.0866327438       29.2423603509      -33.0013119275  MEOH      1754            0.0000000000
     33056      2446  MEOH      O1            -27.8467575530       29.2418103722      -34.4099628514  MEOH      1754            0.0000000000
     33057      2446  MEOH      DO1           -27.8495018204       29.2413534817      -34.4070162761  MEOH      1754            0.0000000000
     33058      2446  MEOH      HO1           -27.5092993715       28.3674596422      -34.6600283976  MEOH      1754            0.0000000000
     33059      2446  MEOH      HO2           -28.6560887579       29.5892737531      -34.8163520733  MEOH      1754            0.0000000000
     33060      2446  MEOH      H1A           -28.3953844280       30.2614698715      -32.6849103650  MEOH      1754            0.0000000000
     33061      2446  MEOH      H1B           -27.1623199383       28.9571781726      -32.4543876272  MEOH      1754            0.0000000000
     33062      2446  MEOH      H1C           -28.8993834261       28.5288138966      -32.7482440920  MEOH      1754            0.0000000000
     33063      2446  MEOH      LP1A          -28.1360997266       29.1434342595      -34.5805595894  MEOH      1754            0.0000000000
     33064      2446  MEOH      LP1B          -27.5208456372       29.3509899078      -34.4760026284  MEOH      1754            0.0000000000
     33065      2447  MEOH      C1             33.6789018771      -10.4238021417       17.3890773604  MEOH      1755            0.0000000000
     33066      2447  MEOH      DC1            33.6910002364      -10.4373094622       17.4030257862  MEOH      1755            0.0000000000
     33067      2447  MEOH      O1             33.1552701176       -9.8645899008       18.5988772749  MEOH      1755            0.0000000000
     33068      2447  MEOH      DO1            33.1879469679       -9.8802138688       18.6174926325  MEOH      1755            0.0000000000
     33069      2447  MEOH      HO1            32.9335723923       -8.9414189815       18.4001171878  MEOH      1755            0.0000000000
     33070      2447  MEOH      HO2            32.4353709911      -10.4585990383       18.8630711322  MEOH      1755            0.0000000000
     33071      2447  MEOH      H1A            33.8441116835      -11.5140188452       17.5249238169  MEOH      1755            0.0000000000
     33072      2447  MEOH      H1B            34.6451319214       -9.9421865643       17.1268428527  MEOH      1755            0.0000000000
     33073      2447  MEOH      H1C            32.9647205353      -10.2688140946       16.5522710995  MEOH      1755            0.0000000000
     33074      2447  MEOH      LP1A           32.8092114787       -9.9147464341       18.6139683535  MEOH      1755            0.0000000000
     33075      2447  MEOH      LP1B           33.4152817545       -9.7310071352       18.7913599843  MEOH      1755            0.0000000000
     33076      2448  MEOH      C1             18.7442844030      -10.4664387362      -21.4537719236  MEOH      1756            0.0000000000
     33077      2448  MEOH      DC1            18.7505950196      -10.4726269067      -21.4346193863  MEOH      1756            0.0000000000
     33078      2448  MEOH      O1             18.2947156416       -9.1110841049      -21.3777705056  MEOH      1756            0.0000000000
     33079      2448  MEOH      DO1            18.3111691170       -9.1112048869      -21.3657936913  MEOH      1756            0.0000000000
     33080      2448  MEOH      HO1            17.4154170950       -9.0804867587      -20.9693615570  MEOH      1756            0.0000000000
     33081      2448  MEOH      HO2            19.0447636672       -8.5650670383      -21.0945862504  MEOH      1756            0.0000000000
     33082      2448  MEOH      H1A            19.5366221395      -10.5538121095      -22.2276503419  MEOH      1756            0.0000000000
     33083      2448  MEOH      H1B            17.9084967039      -11.1322257667      -21.7579224665  MEOH      1756            0.0000000000
     33084      2448  MEOH      H1C            19.1478839873      -10.7894981316      -20.4703793252  MEOH      1756            0.0000000000
     33085      2448  MEOH      LP1A           18.4007729253       -8.9664598537      -21.0772115621  MEOH      1756            0.0000000000
     33086      2448  MEOH      LP1B           18.1231511412       -9.0252767409      -21.6705207720  MEOH      1756            0.0000000000
     33087      2449  MEOH      C1             -0.1929077435      -14.3611896781      -10.1852031395  MEOH      1757            0.0000000000
     33088      2449  MEOH      DC1            -0.2010765344      -14.3593393507      -10.1792943189  MEOH      1757            0.0000000000
     33089      2449  MEOH      O1             -0.8743316302      -13.7984142329      -11.3036707393  MEOH      1757            0.0000000000
     33090      2449  MEOH      DO1            -0.8834844425      -13.8019166814      -11.2896200234  MEOH      1757            0.0000000000
     33091      2449  MEOH      HO1            -0.2762486705      -13.8283603273      -12.0667565829  MEOH      1757            0.0000000000
     33092      2449  MEOH      HO2            -1.7514766465      -14.2120207517      -11.3247958116  MEOH      1757            0.0000000000
     33093      2449  MEOH      H1A            -0.7640948984      -14.1607471756       -9.2535975160  MEOH      1757            0.0000000000
     33094      2449  MEOH      H1B             0.8137899059      -13.9020314147      -10.0849308503  MEOH      1757            0.0000000000
     33095      2449  MEOH      H1C            -0.0788577851      -15.4579708601      -10.3207931358  MEOH      1757            0.0000000000
     33096      2449  MEOH      LP1A           -1.0519881078      -14.0476633604      -11.4734148066  MEOH      1757            0.0000000000
     33097      2449  MEOH      LP1B           -0.8203589383      -13.4527935443      -11.3152157880  MEOH      1757            0.0000000000
     33098      2450  MEOH      C1             25.3968177313       11.4213086101      -34.6920117722  MEOH      1758            0.0000000000
     33099      2450  MEOH      DC1            25.3968152121       11.4287392427      -34.6864804542  MEOH      1758            0.0000000000
     33100      2450  MEOH      O1             25.5779764365       10.3322351148      -33.7841910821  MEOH      1758            0.0000000000
     33101      2450  MEOH      DO1            25.5803712696       10.3351256895      -33.7783052405  MEOH      1758            0.0000000000
     33102      2450  MEOH      HO1            25.3417310692       10.6293605809      -32.8915519701  MEOH      1758            0.0000000000
     33103      2450  MEOH      HO2            25.1296834673        9.5722779714      -34.1871781217  MEOH      1758            0.0000000000
     33104      2450  MEOH      H1A            25.7242336209       11.1152231468      -35.7085901146  MEOH      1758            0.0000000000
     33105      2450  MEOH      H1B            26.0023744923       12.2917654240      -34.3604594462  MEOH      1758            0.0000000000
     33106      2450  MEOH      H1C            24.3227019981       11.7012872398      -34.7390049468  MEOH      1758            0.0000000000
     33107      2450  MEOH      LP1A           25.2839480306       10.1435107879      -33.7634443969  MEOH      1758            0.0000000000
     33108      2450  MEOH      LP1B           25.9057918614       10.3318725093      -33.6615659796  MEOH      1758            0.0000000000
     33109      2451  MEOH      C1             -9.3111361554      -28.5276487047      -14.5618134490  MEOH      1759            0.0000000000
     33110      2451  MEOH      DC1            -9.3192503949      -28.5263941353      -14.5465085030  MEOH      1759            0.0000000000
     33111      2451  MEOH      O1             -9.6496061245      -28.7101689072      -13.1841501041  MEOH      1759            0.0000000000
     33112      2451  MEOH      DO1            -9.6586743552      -28.7154334218      -13.1712423015  MEOH      1759            0.0000000000
     33113      2451  MEOH      HO1            -9.0432581592      -28.1411288676      -12.6847148431  MEOH      1759            0.0000000000
     33114      2451  MEOH      HO2           -10.6113513318      -28.5975844936      -13.1269582691  MEOH      1759            0.0000000000
     33115      2451  MEOH      H1A            -9.8371325981      -29.2755312863      -15.1929397337  MEOH      1759            0.0000000000
     33116      2451  MEOH      H1B            -8.2150598073      -28.6471121921      -14.6984374381  MEOH      1759            0.0000000000
     33117      2451  MEOH      H1C            -9.5945690904      -27.5095732635      -14.9046095536  MEOH      1759            0.0000000000
     33118      2451  MEOH      LP1A           -9.8976628964      -28.4816848212      -13.0905399532  MEOH      1759            0.0000000000
     33119      2451  MEOH      LP1B           -9.4664350461      -28.9766207522      -13.0501658872  MEOH      1759            0.0000000000
     33120      2452  MEOH      C1              2.4791449784       -1.4648500795      -36.4643291447  MEOH      1760            0.0000000000
     33121      2452  MEOH      DC1             2.4903690299       -1.4807481709      -36.4575735462  MEOH      1760            0.0000000000
     33122      2452  MEOH      O1              3.5426846371       -2.2637336039      -36.9840199266  MEOH      1760            0.0000000000
     33123      2452  MEOH      DO1             3.5468362857       -2.2759093850      -36.9799576605  MEOH      1760            0.0000000000
     33124      2452  MEOH      HO1             4.3718315099       -1.9157909687      -36.6202186264  MEOH      1760            0.0000000000
     33125      2452  MEOH      HO2             3.2767526378       -3.1884158308      -36.8609632238  MEOH      1760            0.0000000000
     33126      2452  MEOH      H1A             1.5353408814       -1.6877939636      -37.0064092601  MEOH      1760            0.0000000000
     33127      2452  MEOH      H1B             2.7031658237       -0.3841952595      -36.5920821128  MEOH      1760            0.0000000000
     33128      2452  MEOH      H1C             2.3390801427       -1.6838338765      -35.3841676104  MEOH      1760            0.0000000000
     33129      2452  MEOH      LP1A            3.6007116499       -2.5373438331      -36.7736148214  MEOH      1760            0.0000000000
     33130      2452  MEOH      LP1B            3.6553558920       -2.1303857629      -37.2873737490  MEOH      1760            0.0000000000
     33131      2453  MEOH      C1             -2.9905928804      -32.2445416671       -5.0674185141  MEOH      1761            0.0000000000
     33132      2453  MEOH      DC1            -2.9925680192      -32.2380210997       -5.0748142061  MEOH      1761            0.0000000000
     33133      2453  MEOH      O1             -2.8325020167      -33.5657252540       -5.5800048958  MEOH      1761            0.0000000000
     33134      2453  MEOH      DO1            -2.8306070167      -33.5633586656       -5.5824609400  MEOH      1761            0.0000000000
     33135      2453  MEOH      HO1            -2.4122963150      -34.0832431391       -4.8753756262  MEOH      1761            0.0000000000
     33136      2453  MEOH      HO2            -3.7062406536      -33.8205559557       -5.9154778571  MEOH      1761            0.0000000000
     33137      2453  MEOH      H1A            -3.4546245829      -31.5902424567       -5.8361109904  MEOH      1761            0.0000000000
     33138      2453  MEOH      H1B            -1.9930029995      -31.8361862276       -4.7983808506  MEOH      1761            0.0000000000
     33139      2453  MEOH      H1C            -3.6355426683      -32.2668953566       -4.1630617891  MEOH      1761            0.0000000000
     33140      2453  MEOH      LP1A           -3.1179956591      -33.7559675212       -5.5107137716  MEOH      1761            0.0000000000
     33141      2453  MEOH      LP1B           -2.5252740702      -33.5940455866       -5.7452590867  MEOH      1761            0.0000000000
     33142      2454  MEOH      C1             22.4674395431        6.4281060372       -5.3926412221  MEOH      1762            0.0000000000
     33143      2454  MEOH      DC1            22.4585951738        6.4127574784       -5.3848976522  MEOH      1762            0.0000000000
     33144      2454  MEOH      O1             23.7772685940        6.6438477851       -4.8567614012  MEOH      1762            0.0000000000
     33145      2454  MEOH      DO1            23.7530143459        6.6305396992       -4.8475821511  MEOH      1762            0.0000000000
     33146      2454  MEOH      HO1            24.4113150896        6.0049172018       -5.2182205983  MEOH      1762            0.0000000000
     33147      2454  MEOH      HO2            23.9638003090        7.5798324405       -5.0300780056  MEOH      1762            0.0000000000
     33148      2454  MEOH      H1A            21.7914626115        7.2365191788       -5.0407259192  MEOH      1762            0.0000000000
     33149      2454  MEOH      H1B            22.0651232818        5.4450891418       -5.0668492473  MEOH      1762            0.0000000000
     33150      2454  MEOH      H1C            22.4813588035        6.4405647229       -6.5034841615  MEOH      1762            0.0000000000
     33151      2454  MEOH      LP1A           23.9518945343        6.8726364134       -5.0559134650  MEOH      1762            0.0000000000
     33152      2454  MEOH      LP1B           23.8177017972        6.4599088057       -4.5617502016  MEOH      1762            0.0000000000
     33153      2455  MEOH      C1              8.7071577821       -5.6703667098      -28.7847607677  MEOH      1763            0.0000000000
     33154      2455  MEOH      DC1             8.7041060257       -5.6733073773      -28.7683583731  MEOH      1763            0.0000000000
     33155      2455  MEOH      O1              8.8940757203       -4.4052477222      -28.1598443785  MEOH      1763            0.0000000000
     33156      2455  MEOH      DO1             8.8910808841       -4.4033664014      -28.1391659759  MEOH      1763            0.0000000000
     33157      2455  MEOH      HO1             9.8525689887       -4.2566809106      -28.1489559733  MEOH      1763            0.0000000000
     33158      2455  MEOH      HO2             8.3489091027       -3.7930242023      -28.6783766540  MEOH      1763            0.0000000000
     33159      2455  MEOH      H1A             7.6383828237       -5.8338826478      -29.0403065097  MEOH      1763            0.0000000000
     33160      2455  MEOH      H1B             9.0598712830       -6.4859036417      -28.1178172169  MEOH      1763            0.0000000000
     33161      2455  MEOH      H1C             9.2748340264       -5.7077027004      -29.7390514498  MEOH      1763            0.0000000000
     33162      2455  MEOH      LP1A            8.8845528484       -4.1506307369      -28.3998016783  MEOH      1763            0.0000000000
     33163      2455  MEOH      LP1B            8.9236785960       -4.4460248237      -27.8134906608  MEOH      1763            0.0000000000
     33164      2456  MEOH      C1             -6.6496282575        1.0074359611       33.9077870230  MEOH      1764            0.0000000000
     33165      2456  MEOH      DC1            -6.6623896056        1.0189317196       33.9229194958  MEOH      1764            0.0000000000
     33166      2456  MEOH      O1             -7.2228465289        2.1951068535       34.4529741397  MEOH      1764            0.0000000000
     33167      2456  MEOH      DO1            -7.2308868816        2.2054857896       34.4702446822  MEOH      1764            0.0000000000
     33168      2456  MEOH      HO1            -7.0196474168        2.8865629190       33.8037448810  MEOH      1764            0.0000000000
     33169      2456  MEOH      HO2            -8.1404116621        1.9786329899       34.6812575030  MEOH      1764            0.0000000000
     33170      2456  MEOH      H1A            -6.7702119187        0.1624598365       34.6189803372  MEOH      1764            0.0000000000
     33171      2456  MEOH      H1B            -5.5681219355        1.1529317840       33.6992299784  MEOH      1764            0.0000000000
     33172      2456  MEOH      H1C            -7.1640934022        0.7555944998       32.9558298311  MEOH      1764            0.0000000000
     33173      2456  MEOH      LP1A           -7.5547210564        2.2275698198       34.3466470323  MEOH      1764            0.0000000000
     33174      2456  MEOH      LP1B           -6.9908364848        2.3559461990       34.6598606892  MEOH      1764            0.0000000000
     33175      2457  MEOH      C1             -4.0558068358      -15.6557552310       28.2019879207  MEOH      1765            0.0000000000
     33176      2457  MEOH      DC1            -4.0659516286      -15.6648989246       28.1917179048  MEOH      1765            0.0000000000
     33177      2457  MEOH      O1             -3.6581850511      -14.9733660436       27.0107938711  MEOH      1765            0.0000000000
     33178      2457  MEOH      DO1            -3.6616223081      -14.9872177344       27.0003038812  MEOH      1765            0.0000000000
     33179      2457  MEOH      HO1            -2.9836134324      -15.5073157670       26.5627416151  MEOH      1765            0.0000000000
     33180      2457  MEOH      HO2            -4.4703732821      -14.6824893746       26.5673516065  MEOH      1765            0.0000000000
     33181      2457  MEOH      H1A            -4.6544317163      -14.9645153330       28.8329844785  MEOH      1765            0.0000000000
     33182      2457  MEOH      H1B            -3.1656792870      -15.9787184390       28.7830978193  MEOH      1765            0.0000000000
     33183      2457  MEOH      H1C            -4.6718755434      -16.5440830641       27.9457575382  MEOH      1765            0.0000000000
     33184      2457  MEOH      LP1A           -3.8639825524      -15.0683040132       26.7440839718  MEOH      1765            0.0000000000
     33185      2457  MEOH      LP1B           -3.3931321794      -14.7556363917       27.0803695417  MEOH      1765            0.0000000000
     33186      2458  MEOH      C1             -0.0397624081       16.2106044678       -1.5133920842  MEOH      1766            0.0000000000
     33187      2458  MEOH      DC1            -0.0346598668       16.2221341941       -1.5076449448  MEOH      1766            0.0000000000
     33188      2458  MEOH      O1             -0.2718186194       14.8279862042       -1.2617320536  MEOH      1766            0.0000000000
     33189      2458  MEOH      DO1            -0.2599206007       14.8362645622       -1.2618300163  MEOH      1766            0.0000000000
     33190      2458  MEOH      HO1             0.0467872669       14.6076199701       -0.3724463785  MEOH      1766            0.0000000000
     33191      2458  MEOH      HO2            -1.2059243108       14.6832557576       -1.4794466744  MEOH      1766            0.0000000000
     33192      2458  MEOH      H1A            -0.3962875804       16.4536825056       -2.5371712933  MEOH      1766            0.0000000000
     33193      2458  MEOH      H1B             1.0475029780       16.4306526520       -1.4521240004  MEOH      1766            0.0000000000
     33194      2458  MEOH      H1C            -0.5894096955       16.8360098337       -0.7778127288  MEOH      1766            0.0000000000
     33195      2458  MEOH      LP1A           -0.5895599058       14.7834481520       -1.1218862927  MEOH      1766            0.0000000000
     33196      2458  MEOH      LP1B            0.0022729964       14.6390067309       -1.3697160560  MEOH      1766            0.0000000000
     33197      2459  MEOH      C1             21.4835853074       19.7043178441       35.3921918623  MEOH      1767            0.0000000000
     33198      2459  MEOH      DC1            21.4857828098       19.7019794086       35.3937117397  MEOH      1767            0.0000000000
     33199      2459  MEOH      O1             21.4158579850       19.3782509782       34.0045255321  MEOH      1767            0.0000000000
     33200      2459  MEOH      DO1            21.4153101885       19.3767854428       34.0103832293  MEOH      1767            0.0000000000
     33201      2459  MEOH      HO1            22.0728654579       18.6886537327       33.8209585971  MEOH      1767            0.0000000000
     33202      2459  MEOH      HO2            20.4775917052       19.2313419288       33.8071068907  MEOH      1767            0.0000000000
     33203      2459  MEOH      H1A            20.7817732054       20.5354413965       35.6180555715  MEOH      1767            0.0000000000
     33204      2459  MEOH      H1B            22.5137644966       20.0177371714       35.6657246087  MEOH      1767            0.0000000000
     33205      2459  MEOH      H1C            21.1938265024       18.8161492540       35.9934550268  MEOH      1767            0.0000000000
     33206      2459  MEOH      LP1A           21.1815060555       19.1235061033       33.9527160557  MEOH      1767            0.0000000000
     33207      2459  MEOH      LP1B           21.6304763835       19.5860214085       33.8221238015  MEOH      1767            0.0000000000
     33208      2460  MEOH      C1              6.0546274229       33.1562301782       18.3185980318  MEOH      1768            0.0000000000
     33209      2460  MEOH      DC1             6.0469883561       33.1680656768       18.3383725199  MEOH      1768            0.0000000000
     33210      2460  MEOH      O1              6.1990078329       32.4387302871       17.0963157156  MEOH      1768            0.0000000000
     33211      2460  MEOH      DO1             6.1936936233       32.4506932209       17.1150348582  MEOH      1768            0.0000000000
     33212      2460  MEOH      HO1             7.0379099928       31.9517914458       17.0905078811  MEOH      1768            0.0000000000
     33213      2460  MEOH      HO2             5.3551182393       31.9960522472       16.9152452659  MEOH      1768            0.0000000000
     33214      2460  MEOH      H1A             5.1792977428       33.8355436704       18.2370374382  MEOH      1768            0.0000000000
     33215      2460  MEOH      H1B             6.9644765801       33.7566188395       18.5331416610  MEOH      1768            0.0000000000
     33216      2460  MEOH      H1C             5.8917179310       32.4339654900       19.1469187537  MEOH      1768            0.0000000000
     33217      2460  MEOH      LP1A            6.0561902880       32.1206371069       17.1266451993  MEOH      1768            0.0000000000
     33218      2460  MEOH      LP1B            6.3559368200       32.6402586605       16.8570259170  MEOH      1768            0.0000000000
     33219      2461  MEOH      C1             19.4505550924      -26.5101355792      -22.4120876301  MEOH      1769            0.0000000000
     33220      2461  MEOH      DC1            19.4363011329      -26.5223116221      -22.3976082625  MEOH      1769            0.0000000000
     33221      2461  MEOH      O1             19.6198704942      -25.4700771487      -23.3781024957  MEOH      1769            0.0000000000
     33222      2461  MEOH      DO1            19.5877033777      -25.4870733548      -23.3771721473  MEOH      1769            0.0000000000
     33223      2461  MEOH      HO1            19.8741567204      -24.6554623075      -22.9169721711  MEOH      1769            0.0000000000
     33224      2461  MEOH      HO2            20.2473822407      -25.8291701617      -24.0247718207  MEOH      1769            0.0000000000
     33225      2461  MEOH      H1A            19.2171735263      -27.4586859777      -22.9413382198  MEOH      1769            0.0000000000
     33226      2461  MEOH      H1B            18.5982730297      -26.2862808632      -21.7354597029  MEOH      1769            0.0000000000
     33227      2461  MEOH      H1C            20.3844433842      -26.6304196955      -21.8224221386  MEOH      1769            0.0000000000
     33228      2461  MEOH      LP1A           19.9498078845      -25.4677133653      -23.4948746284  MEOH      1769            0.0000000000
     33229      2461  MEOH      LP1B           19.3155726222      -25.3056053228      -23.4315049638  MEOH      1769            0.0000000000
     33230      2462  MEOH      C1             33.1420945946      -25.2292233035       20.8122032049  MEOH      1770            0.0000000000
     33231      2462  MEOH      DC1            33.1373385779      -25.2257013676       20.8092673725  MEOH      1770            0.0000000000
     33232      2462  MEOH      O1             33.3030616985      -24.9905322626       22.2154427055  MEOH      1770            0.0000000000
     33233      2462  MEOH      DO1            33.2937034584      -24.9693106407       22.2012299730  MEOH      1770            0.0000000000
     33234      2462  MEOH      HO1            34.2269093123      -24.7762685601       22.4191499785  MEOH      1770            0.0000000000
     33235      2462  MEOH      HO2            32.5582188041      -24.4427160052       22.5087112017  MEOH      1770            0.0000000000
     33236      2462  MEOH      H1A            32.1882947253      -25.7760544472       20.6523204054  MEOH      1770            0.0000000000
     33237      2462  MEOH      H1B            33.9686679076      -25.8544864950       20.4120238687  MEOH      1770            0.0000000000
     33238      2462  MEOH      H1C            33.1156913226      -24.2729368065       20.2472784281  MEOH      1770            0.0000000000
     33239      2462  MEOH      LP1A           33.2472540553      -24.6524017323       22.2865289311  MEOH      1770            0.0000000000
     33240      2462  MEOH      LP1B           33.3745838080      -25.2907622747       22.3805079281  MEOH      1770            0.0000000000
     33241      2463  MEOH      C1             30.1147540182       17.9220192804       -9.4166680679  MEOH      1771            0.0000000000
     33242      2463  MEOH      DC1            30.1084796181       17.9250095116       -9.4156034861  MEOH      1771            0.0000000000
     33243      2463  MEOH      O1             29.8612817015       19.2553717329       -9.8648785312  MEOH      1771            0.0000000000
     33244      2463  MEOH      DO1            29.8537501356       19.2542813522       -9.8668299716  MEOH      1771            0.0000000000
     33245      2463  MEOH      HO1            29.8443780534       19.2424276559      -10.8346448528  MEOH      1771            0.0000000000
     33246      2463  MEOH      HO2            29.1002834395       19.5720545217       -9.3535140266  MEOH      1771            0.0000000000
     33247      2463  MEOH      H1A            30.2727467414       17.9138554404       -8.3169896363  MEOH      1771            0.0000000000
     33248      2463  MEOH      H1B            31.0254343734       17.5213519426       -9.9110848718  MEOH      1771            0.0000000000
     33249      2463  MEOH      H1C            29.2448337028       17.2731287178       -9.6543667905  MEOH      1771            0.0000000000
     33250      2463  MEOH      LP1A           29.5164484797       19.3095160340       -9.8905386914  MEOH      1771            0.0000000000
     33251      2463  MEOH      LP1B           30.1632179426       19.4281459558       -9.9033957250  MEOH      1771            0.0000000000
     33252      2464  MEOH      C1              6.3707766372      -16.2387760868      -14.1208224156  MEOH      1772            0.0000000000
     33253      2464  MEOH      DC1             6.3712633575      -16.2314893383      -14.1199252260  MEOH      1772            0.0000000000
     33254      2464  MEOH      O1              6.7179572324      -16.6831593022      -15.4339225888  MEOH      1772            0.0000000000
     33255      2464  MEOH      DO1             6.7086369704      -16.6691151602      -15.4406670393  MEOH      1772            0.0000000000
     33256      2464  MEOH      HO1             7.0226620429      -17.5994051652      -15.3414645019  MEOH      1772            0.0000000000
     33257      2464  MEOH      HO2             5.9708832538      -16.4466114726      -16.0056092116  MEOH      1772            0.0000000000
     33258      2464  MEOH      H1A             6.2802617692      -15.1317521714      -14.0958002367  MEOH      1772            0.0000000000
     33259      2464  MEOH      H1B             7.1425978291      -16.5444607500      -13.3824661764  MEOH      1772            0.0000000000
     33260      2464  MEOH      H1C             5.3905463623      -16.6764218041      -13.8345780535  MEOH      1772            0.0000000000
     33261      2464  MEOH      LP1A            6.4378818865      -16.8221401411      -15.5912188921  MEOH      1772            0.0000000000
     33262      2464  MEOH      LP1B            7.0532581562      -16.6083736389      -15.5008583419  MEOH      1772            0.0000000000
     33263      2465  MEOH      C1            -15.4043035642        6.3727912168       17.8368223835  MEOH      1773            0.0000000000
     33264      2465  MEOH      DC1           -15.3944480634        6.3856581991       17.8318521146  MEOH      1773            0.0000000000
     33265      2465  MEOH      O1            -15.0287028786        5.0498185370       17.4584699413  MEOH      1773            0.0000000000
     33266      2465  MEOH      DO1           -15.0259785106        5.0565169855       17.4506328438  MEOH      1773            0.0000000000
     33267      2465  MEOH      HO1           -15.6830497536        4.4431641562       17.8388653031  MEOH      1773            0.0000000000
     33268      2465  MEOH      HO2           -14.8581605665        5.0736962036       16.5038783129  MEOH      1773            0.0000000000
     33269      2465  MEOH      H1A           -14.5732992863        7.0700566259       17.5968768870  MEOH      1773            0.0000000000
     33270      2465  MEOH      H1B           -15.5983379394        6.4017360009       18.9303642717  MEOH      1773            0.0000000000
     33271      2465  MEOH      H1C           -16.3227700816        6.6829741768       17.2941191608  MEOH      1773            0.0000000000
     33272      2465  MEOH      LP1A          -15.1751321760        4.9669565224       17.1515622233  MEOH      1773            0.0000000000
     33273      2465  MEOH      LP1B          -14.8101696930        4.9148121219       17.6962019641  MEOH      1773            0.0000000000
     33274      2466  MEOH      C1              8.3712612230       -3.1644286338        2.8742757894  MEOH      1774            0.0000000000
     33275      2466  MEOH      DC1             8.3709977721       -3.1638232337        2.8601800634  MEOH      1774            0.0000000000
     33276      2466  MEOH      O1              9.3895190759       -2.3361529851        2.3086410279  MEOH      1774            0.0000000000
     33277      2466  MEOH      DO1             9.3947348612       -2.3454877014        2.3001705145  MEOH      1774            0.0000000000
     33278      2466  MEOH      HO1             9.5682422614       -1.6374450935        2.9573052749  MEOH      1774            0.0000000000
     33279      2466  MEOH      HO2            10.0986758970       -2.9383129978        2.0340505636  MEOH      1774            0.0000000000
     33280      2466  MEOH      H1A             8.0720072529       -3.9515645178        2.1495791894  MEOH      1774            0.0000000000
     33281      2466  MEOH      H1B             7.4873994123       -2.5542500643        3.1585140923  MEOH      1774            0.0000000000
     33282      2466  MEOH      H1C             8.7517730133       -3.6605989838        3.7926149219  MEOH      1774            0.0000000000
     33283      2466  MEOH      LP1A            9.7055899110       -2.4585141986        2.3959734997  MEOH      1774            0.0000000000
     33284      2466  MEOH      LP1B            9.2442305796       -2.0817032457        2.1172080554  MEOH      1774            0.0000000000
     33285      2467  MEOH      C1            -32.6500561287      -10.5449019744       18.7294750731  MEOH      1775            0.0000000000
     33286      2467  MEOH      DC1           -32.6688600181      -10.5470106425       18.7328127501  MEOH      1775            0.0000000000
     33287      2467  MEOH      O1            -31.5735911143      -11.1293621816       19.4656578382  MEOH      1775            0.0000000000
     33288      2467  MEOH      DO1           -31.5820740076      -11.1305102723       19.4662870408  MEOH      1775            0.0000000000
     33289      2467  MEOH      HO1           -30.9388756230      -11.4756877338       18.8190552877  MEOH      1775            0.0000000000
     33290      2467  MEOH      HO2           -31.2783410287      -10.4415665512       20.0826380305  MEOH      1775            0.0000000000
     33291      2467  MEOH      H1A           -33.4076345982      -10.1526105123       19.4411655062  MEOH      1775            0.0000000000
     33292      2467  MEOH      H1B           -33.1237230038      -11.3069624940       18.0743228340  MEOH      1775            0.0000000000
     33293      2467  MEOH      H1C           -32.2725432548       -9.7083820334       18.1033445609  MEOH      1775            0.0000000000
     33294      2467  MEOH      LP1A          -31.3288677842      -10.8880375371       19.5317858023  MEOH      1775            0.0000000000
     33295      2467  MEOH      LP1B          -31.6431651478      -11.4657618925       19.5327002757  MEOH      1775            0.0000000000
     33296      2468  MEOH      C1            -30.0057554197       35.7718904135       18.7749491935  MEOH      1776            0.0000000000
     33297      2468  MEOH      DC1           -30.0179191376       35.7720294659       18.7716385914  MEOH      1776            0.0000000000
     33298      2468  MEOH      O1            -28.6079628305       35.5914438578       18.5532120070  MEOH      1776            0.0000000000
     33299      2468  MEOH      DO1           -28.6222993674       35.5884815745       18.5551281785  MEOH      1776            0.0000000000
     33300      2468  MEOH      HO1           -28.1282687600       35.8949725286       19.3397639409  MEOH      1776            0.0000000000
     33301      2468  MEOH      HO2           -28.5006181200       34.6811529234       18.2358044948  MEOH      1776            0.0000000000
     33302      2468  MEOH      H1A           -30.5595591415       35.5538008211       17.8368343992  MEOH      1776            0.0000000000
     33303      2468  MEOH      H1B           -30.1979375827       36.8247976286       19.0728978705  MEOH      1776            0.0000000000
     33304      2468  MEOH      H1C           -30.3585850147       35.0928399240       19.5803824374  MEOH      1776            0.0000000000
     33305      2468  MEOH      LP1A          -28.5104957381       35.2718634256       18.6574641688  MEOH      1776            0.0000000000
     33306      2468  MEOH      LP1B          -28.4730769751       35.8764655257       18.4013289769  MEOH      1776            0.0000000000
     33307      2469  MEOH      C1             24.0533502497       -3.2386039766       13.4615400049  MEOH      1777            0.0000000000
     33308      2469  MEOH      DC1            24.0665906898       -3.2469845985       13.4526106751  MEOH      1777            0.0000000000
     33309      2469  MEOH      O1             22.8930234259       -2.4133763896       13.4658118843  MEOH      1777            0.0000000000
     33310      2469  MEOH      DO1            22.8978865816       -2.4301177521       13.4590336459  MEOH      1777            0.0000000000
     33311      2469  MEOH      HO1            23.1227838773       -1.5507203833       13.8451992191  MEOH      1777            0.0000000000
     33312      2469  MEOH      HO2            22.4854613508       -2.4888585774       12.5888309296  MEOH      1777            0.0000000000
     33313      2469  MEOH      H1A            23.7546582356       -4.2687588922       13.1719110515  MEOH      1777            0.0000000000
     33314      2469  MEOH      H1B            24.5046076355       -3.2734948345       14.4761682138  MEOH      1777            0.0000000000
     33315      2469  MEOH      H1C            24.7909148593       -2.8384930633       12.7333705847  MEOH      1777            0.0000000000
     33316      2469  MEOH      LP1A           22.8702894305       -2.2372364039       13.1642196581  MEOH      1777            0.0000000000
     33317      2469  MEOH      LP1B           22.7145818547       -2.4592736433       13.7633888453  MEOH      1777            0.0000000000
     33318      2470  MEOH      C1             15.8280802342       30.4692958502        5.9801823971  MEOH      1778            0.0000000000
     33319      2470  MEOH      DC1            15.8563424779       30.4580802469        5.9919450845  MEOH      1778            0.0000000000
     33320      2470  MEOH      O1             14.4503230895       30.7631633136        5.7586521724  MEOH      1778            0.0000000000
     33321      2470  MEOH      DO1            14.4599241407       30.7538903138        5.7869200137  MEOH      1778            0.0000000000
     33322      2470  MEOH      HO1            14.2976141838       30.7362033536        4.8011276815  MEOH      1778            0.0000000000
     33323      2470  MEOH      HO2            13.9454448922       30.1960742761        6.3623143547  MEOH      1778            0.0000000000
     33324      2470  MEOH      H1A            16.0717712828       30.6643526413        7.0464321432  MEOH      1778            0.0000000000
     33325      2470  MEOH      H1B            16.4476212973       31.1320507108        5.3388978523  MEOH      1778            0.0000000000
     33326      2470  MEOH      H1C            16.0260923051       29.4035945478        5.7364756995  MEOH      1778            0.0000000000
     33327      2470  MEOH      LP1A           14.2622713143       30.4680696666        5.7661534636  MEOH      1778            0.0000000000
     33328      2470  MEOH      LP1B           14.4054801793       31.1086705309        5.7252773888  MEOH      1778            0.0000000000
     33329      2471  MEOH      C1              5.2463580399       17.0340913425       -2.4350316589  MEOH      1779            0.0000000000
     33330      2471  MEOH      DC1             5.2402940008       17.0405368989       -2.4180260714  MEOH      1779            0.0000000000
     33331      2471  MEOH      O1              6.0480570583       15.9938517442       -2.9903945698  MEOH      1779            0.0000000000
     33332      2471  MEOH      DO1             6.0402163511       15.9963190401       -2.9683619076  MEOH      1779            0.0000000000
     33333      2471  MEOH      HO1             6.7671934145       15.7513849161       -2.3862813858  MEOH      1779            0.0000000000
     33334      2471  MEOH      HO2             5.4377234514       15.3367474754       -3.3599982334  MEOH      1779            0.0000000000
     33335      2471  MEOH      H1A             4.6451216605       17.5026830155       -3.2432752242  MEOH      1779            0.0000000000
     33336      2471  MEOH      H1B             5.8815125341       17.8049632297       -1.9485583277  MEOH      1779            0.0000000000
     33337      2471  MEOH      H1C             4.5183723919       16.6022947867       -1.7153722727  MEOH      1779            0.0000000000
     33338      2471  MEOH      LP1A            5.9178470110       15.6815746246       -2.9007935423  MEOH      1779            0.0000000000
     33339      2471  MEOH      LP1B            6.3062273760       16.1313458081       -3.1826014101  MEOH      1779            0.0000000000
     33340      2472  MEOH      C1             18.2889142556        4.6316566918       -2.0103451057  MEOH      1780            0.0000000000
     33341      2472  MEOH      DC1            18.3180643633        4.6243420456       -1.9990836525  MEOH      1780            0.0000000000
     33342      2472  MEOH      O1             17.2960623476        3.6209076190       -2.1610658916  MEOH      1780            0.0000000000
     33343      2472  MEOH      DO1            17.3237899825        3.6063798336       -2.1432017944  MEOH      1780            0.0000000000
     33344      2472  MEOH      HO1            17.2415250918        3.3441180078       -3.0891355004  MEOH      1780            0.0000000000
     33345      2472  MEOH      HO2            17.3445442876        3.0277362941       -1.3951042205  MEOH      1780            0.0000000000
     33346      2472  MEOH      H1A            18.0285356676        5.2773706066       -1.1445636483  MEOH      1780            0.0000000000
     33347      2472  MEOH      H1B            18.3104902016        5.2645689156       -2.9231855055  MEOH      1780            0.0000000000
     33348      2472  MEOH      H1C            19.2812572586        4.1626192457       -1.8383560364  MEOH      1780            0.0000000000
     33349      2472  MEOH      LP1A           17.4385555970        3.3049436172       -2.1124611238  MEOH      1780            0.0000000000
     33350      2472  MEOH      LP1B           16.9845058052        3.7675484285       -2.2237475782  MEOH      1780            0.0000000000
     33351      2473  MEOH      C1            -30.9401359195      -29.4550529068        8.7397894432  MEOH      1781            0.0000000000
     33352      2473  MEOH      DC1           -30.9294299842      -29.4566236355        8.7358547152  MEOH      1781            0.0000000000
     33353      2473  MEOH      O1            -30.3239938487      -28.4044025157        7.9909558904  MEOH      1781            0.0000000000
     33354      2473  MEOH      DO1           -30.3025497475      -28.4055580612        7.9962981983  MEOH      1781            0.0000000000
     33355      2473  MEOH      HO1           -30.4621630538      -28.6137357750        7.0539452940  MEOH      1781            0.0000000000
     33356      2473  MEOH      HO2           -30.7264706132      -27.5890509576        8.3287639584  MEOH      1781            0.0000000000
     33357      2473  MEOH      H1A           -30.9535465306      -29.1820329191        9.8166372702  MEOH      1781            0.0000000000
     33358      2473  MEOH      H1B           -30.3714951974      -30.4012239755        8.6143739823  MEOH      1781            0.0000000000
     33359      2473  MEOH      H1C           -31.9879015051      -29.6055839491        8.4023747359  MEOH      1781            0.0000000000
     33360      2473  MEOH      LP1A          -30.5532042838      -28.1454275138        7.9371551013  MEOH      1781            0.0000000000
     33361      2473  MEOH      LP1B          -29.9884281335      -28.4823441453        7.9291436496  MEOH      1781            0.0000000000
     33362      2474  MEOH      C1              5.7901483166       16.1143212534       33.0928060306  MEOH      1782            0.0000000000
     33363      2474  MEOH      DC1             5.7869117725       16.1312505577       33.0941405903  MEOH      1782            0.0000000000
     33364      2474  MEOH      O1              5.8957398703       14.8152475611       33.6577756732  MEOH      1782            0.0000000000
     33365      2474  MEOH      DO1             5.9056994354       14.8282137439       33.6537801572  MEOH      1782            0.0000000000
     33366      2474  MEOH      HO1             5.5344297474       14.8237111041       34.5579330838  MEOH      1782            0.0000000000
     33367      2474  MEOH      HO2             5.5306975180       14.2045228856       32.9984885948  MEOH      1782            0.0000000000
     33368      2474  MEOH      H1A             6.3258143345       16.1364963479       32.1197226924  MEOH      1782            0.0000000000
     33369      2474  MEOH      H1B             6.2439644106       16.8646422571       33.7750012697  MEOH      1782            0.0000000000
     33370      2474  MEOH      H1C             4.7193907945       16.3357546158       32.8959136830  MEOH      1782            0.0000000000
     33371      2474  MEOH      LP1A            5.6098379380       14.6281344238       33.5819551026  MEOH      1782            0.0000000000
     33372      2474  MEOH      LP1B            6.2042753274       14.7795992096       33.8191295290  MEOH      1782            0.0000000000
     33373      2475  MEOH      C1             24.2753436922      -29.4147891508       20.1966226362  MEOH      1783            0.0000000000
     33374      2475  MEOH      DC1            24.2808263316      -29.3867038914       20.2121944515  MEOH      1783            0.0000000000
     33375      2475  MEOH      O1             23.6868053825      -30.4895128306       19.4855801186  MEOH      1783            0.0000000000
     33376      2475  MEOH      DO1            23.6942821543      -30.4561052556       19.4813827683  MEOH      1783            0.0000000000
     33377      2475  MEOH      HO1            22.7193585050      -30.5065145862       19.5538258481  MEOH      1783            0.0000000000
     33378      2475  MEOH      HO2            24.1962896880      -30.6795435041       18.6823279249  MEOH      1783            0.0000000000
     33379      2475  MEOH      H1A            25.3199803920      -29.7035834158       20.4408623512  MEOH      1783            0.0000000000
     33380      2475  MEOH      H1B            23.7131536135      -29.2357379069       21.1380067063  MEOH      1783            0.0000000000
     33381      2475  MEOH      H1C            24.2736500024      -28.5110917370       19.5503648570  MEOH      1783            0.0000000000
     33382      2475  MEOH      LP1A           23.6200553402      -30.3926618524       19.1559374031  MEOH      1783            0.0000000000
     33383      2475  MEOH      LP1B           23.6645081825      -30.7714838851       19.6917236591  MEOH      1783            0.0000000000
     33384      2476  MEOH      C1            -31.7280808062      -24.6853066655        6.1247454104  MEOH      1784            0.0000000000
     33385      2476  MEOH      DC1           -31.7206039772      -24.6821817426        6.1232077915  MEOH      1784            0.0000000000
     33386      2476  MEOH      O1            -31.0474205430      -25.4279280245        5.1095178001  MEOH      1784            0.0000000000
     33387      2476  MEOH      DO1           -31.0376167535      -25.4187785251        5.1023799352  MEOH      1784            0.0000000000
     33388      2476  MEOH      HO1           -31.7163153170      -25.6838042476        4.4552952527  MEOH      1784            0.0000000000
     33389      2476  MEOH      HO2           -30.2657998671      -24.9079074827        4.8654937130  MEOH      1784            0.0000000000
     33390      2476  MEOH      H1A           -31.0532562155      -24.5196650532        6.9916338860  MEOH      1784            0.0000000000
     33391      2476  MEOH      H1B           -32.6245170138      -25.2449406428        6.4675761808  MEOH      1784            0.0000000000
     33392      2476  MEOH      H1C           -32.0487842891      -23.6997141219        5.7246484020  MEOH      1784            0.0000000000
     33393      2476  MEOH      LP1A          -30.9295471429      -25.2111239239        4.8613206133  MEOH      1784            0.0000000000
     33394      2476  MEOH      LP1B          -31.0414463319      -25.7676740213        5.1934044287  MEOH      1784            0.0000000000
     33395      2477  MEOH      C1             10.0455425886      -19.0951474377       30.2251579079  MEOH      1785            0.0000000000
     33396      2477  MEOH      DC1            10.0649147246      -19.0967039855       30.2415175237  MEOH      1785            0.0000000000
     33397      2477  MEOH      O1             10.6041443638      -18.6873709119       28.9732404287  MEOH      1785            0.0000000000
     33398      2477  MEOH      DO1            10.6302347535      -18.6897416105       28.9941573673  MEOH      1785            0.0000000000
     33399      2477  MEOH      HO1             9.9958492250      -18.0545592074       28.5604131384  MEOH      1785            0.0000000000
     33400      2477  MEOH      HO2            11.5426458289      -18.4928225848       29.1224582175  MEOH      1785            0.0000000000
     33401      2477  MEOH      H1A            10.5644266731      -20.0108254217       30.5809867100  MEOH      1785            0.0000000000
     33402      2477  MEOH      H1B             8.9669953694      -19.3290504516       30.0973053450  MEOH      1785            0.0000000000
     33403      2477  MEOH      H1C            10.1550392900      -18.2869105680       30.9795348929  MEOH      1785            0.0000000000
     33404      2477  MEOH      LP1A           10.8111650761      -18.4089832785       29.0195302792  MEOH      1785            0.0000000000
     33405      2477  MEOH      LP1B           10.4996921915      -18.9043057595       28.7192148087  MEOH      1785            0.0000000000
     33406      2478  MEOH      C1             35.3735411399      -24.8166453166        5.5794247034  MEOH      1786            0.0000000000
     33407      2478  MEOH      DC1            35.3936922014      -24.7995594761        5.5852886298  MEOH      1786            0.0000000000
     33408      2478  MEOH      O1             34.0452692885      -25.3276996661        5.6985137966  MEOH      1786            0.0000000000
     33409      2478  MEOH      DO1            34.0597851465      -25.3121272222        5.7095428066  MEOH      1786            0.0000000000
     33410      2478  MEOH      HO1            33.6784398737      -25.4053130015        4.8039120134  MEOH      1786            0.0000000000
     33411      2478  MEOH      HO2            34.1297807789      -26.1371479171        6.2262934263  MEOH      1786            0.0000000000
     33412      2478  MEOH      H1A            35.8164205795      -24.7007650264        6.5917243433  MEOH      1786            0.0000000000
     33413      2478  MEOH      H1B            35.3476544608      -23.8384855742        5.0532551507  MEOH      1786            0.0000000000
     33414      2478  MEOH      H1C            36.0048889879      -25.5167870343        4.9916131081  MEOH      1786            0.0000000000
     33415      2478  MEOH      LP1A           34.0507124689      -25.6776167394        5.6931833572  MEOH      1786            0.0000000000
     33416      2478  MEOH      LP1B           33.8183143848      -25.0637985395        5.7352243815  MEOH      1786            0.0000000000
     33417      2479  MEOH      C1             16.8682812059       13.1007993780       -6.3108007619  MEOH      1787            0.0000000000
     33418      2479  MEOH      DC1            16.8827356871       13.1035806551       -6.3192972774  MEOH      1787            0.0000000000
     33419      2479  MEOH      O1             17.1753685465       11.7380147613       -5.9935740173  MEOH      1787            0.0000000000
     33420      2479  MEOH      DO1            17.1881226234       11.7345897408       -6.0000834712  MEOH      1787            0.0000000000
     33421      2479  MEOH      HO1            16.4087425762       11.2085859186       -6.2635549835  MEOH      1787            0.0000000000
     33422      2479  MEOH      HO2            18.0785754744       11.5630997472       -6.3010182956  MEOH      1787            0.0000000000
     33423      2479  MEOH      H1A            17.5424756999       13.7748052580       -5.7402756897  MEOH      1787            0.0000000000
     33424      2479  MEOH      H1B            15.8200385399       13.3404454132       -6.0313761876  MEOH      1787            0.0000000000
     33425      2479  MEOH      H1C            16.9926195383       13.2712499101       -7.4015837815  MEOH      1787            0.0000000000
     33426      2479  MEOH      LP1A           17.3385731414       11.5861505655       -6.2633915969  MEOH      1787            0.0000000000
     33427      2479  MEOH      LP1B           17.0737023176       11.6653765639       -5.6666372188  MEOH      1787            0.0000000000
     33428      2480  MEOH      C1             34.8248921407      -19.6510400607      -19.8618946951  MEOH      1788            0.0000000000
     33429      2480  MEOH      DC1            34.8251089454      -19.6471761255      -19.8322994259  MEOH      1788            0.0000000000
     33430      2480  MEOH      O1             34.8972762641      -19.6642003306      -21.2872912050  MEOH      1788            0.0000000000
     33431      2480  MEOH      DO1            34.8923187183      -19.6497309380      -21.2635422228  MEOH      1788            0.0000000000
     33432      2480  MEOH      HO1            35.8033767891      -19.4591303343      -21.5662681487  MEOH      1788            0.0000000000
     33433      2480  MEOH      HO2            34.5353022756      -20.5251656440      -21.5492331098  MEOH      1788            0.0000000000
     33434      2480  MEOH      H1A            33.8059620808      -19.9684075523      -19.5530575076  MEOH      1788            0.0000000000
     33435      2480  MEOH      H1B            35.0313812581      -18.6308518076      -19.4734372657  MEOH      1788            0.0000000000
     33436      2480  MEOH      H1C            35.5669540201      -20.3662035847      -19.4469172241  MEOH      1788            0.0000000000
     33437      2480  MEOH      LP1A           34.9723104223      -19.9868198925      -21.4003685828  MEOH      1788            0.0000000000
     33438      2480  MEOH      LP1B           34.8232179145      -19.3463991669      -21.4138525783  MEOH      1788            0.0000000000
     33439      2481  MEOH      C1            -11.0014098916       -1.9717755515      -19.6626595852  MEOH      1789            0.0000000000
     33440      2481  MEOH      DC1           -10.9851008137       -1.9521516550      -19.6745577868  MEOH      1789            0.0000000000
     33441      2481  MEOH      O1             -9.6329683446       -1.5855917235      -19.5255456710  MEOH      1789            0.0000000000
     33442      2481  MEOH      DO1            -9.6135383247       -1.5817395338      -19.5270237805  MEOH      1789            0.0000000000
     33443      2481  MEOH      HO1            -9.2690715050       -1.5364652373      -20.4233572762  MEOH      1789            0.0000000000
     33444      2481  MEOH      HO2            -9.6308389536       -0.8081302888      -18.9455032722  MEOH      1789            0.0000000000
     33445      2481  MEOH      H1A           -11.4622178084       -2.1219824107      -18.6629521464  MEOH      1789            0.0000000000
     33446      2481  MEOH      H1B           -11.0689173786       -2.9231438189      -20.2324509161  MEOH      1789            0.0000000000
     33447      2481  MEOH      H1C           -11.5769245997       -1.1912105748      -20.2047132160  MEOH      1789            0.0000000000
     33448      2481  MEOH      LP1A           -9.6064007440       -1.2366028134      -19.5264960649  MEOH      1789            0.0000000000
     33449      2481  MEOH      LP1B           -9.4314168860       -1.8695425848      -19.4902056385  MEOH      1789            0.0000000000
     33450      2482  MEOH      C1             20.5128718597       -4.8606531931      -36.2482531391  MEOH      1790            0.0000000000
     33451      2482  MEOH      DC1            20.4950945991       -4.8463725048      -36.2290648091  MEOH      1790            0.0000000000
     33452      2482  MEOH      O1             19.3931722108       -4.0299257265      -36.5958072621  MEOH      1790            0.0000000000
     33453      2482  MEOH      DO1            19.3572730060       -4.0412981485      -36.5960389698  MEOH      1790            0.0000000000
     33454      2482  MEOH      HO1            18.9138561543       -3.8137547466      -35.7806838195  MEOH      1790            0.0000000000
     33455      2482  MEOH      HO2            19.7437119482       -3.3334975888      -37.1728772244  MEOH      1790            0.0000000000
     33456      2482  MEOH      H1A            21.1792477527       -4.9820586197      -37.1288920506  MEOH      1790            0.0000000000
     33457      2482  MEOH      H1B            20.1668378766       -5.8703775380      -35.9399704282  MEOH      1790            0.0000000000
     33458      2482  MEOH      H1C            21.1246070050       -4.3901293808      -35.4490607618  MEOH      1790            0.0000000000
     33459      2482  MEOH      LP1A           19.4881394574       -3.6930830753      -36.5915352127  MEOH      1790            0.0000000000
     33460      2482  MEOH      LP1B           19.1146842793       -4.2288745235      -36.6690455595  MEOH      1790            0.0000000000
     33461      2483  MEOH      C1             11.6802304069       12.4365957190       33.9552967060  MEOH      1791            0.0000000000
     33462      2483  MEOH      DC1            11.6787361887       12.4371786246       33.9489337533  MEOH      1791            0.0000000000
     33463      2483  MEOH      O1             10.8417084328       11.2932238100       33.8060940849  MEOH      1791            0.0000000000
     33464      2483  MEOH      DO1            10.8352235085       11.2967214988       33.8056238463  MEOH      1791            0.0000000000
     33465      2483  MEOH      HO1            10.5067428922       11.3000009047       32.8957907518  MEOH      1791            0.0000000000
     33466      2483  MEOH      HO2            11.3796049056       10.5438032330       34.1059877049  MEOH      1791            0.0000000000
     33467      2483  MEOH      H1A            12.0651958128       12.4877616772       34.9962120155  MEOH      1791            0.0000000000
     33468      2483  MEOH      H1B            11.1074673381       13.3643019545       33.7416975310  MEOH      1791            0.0000000000
     33469      2483  MEOH      H1C            12.5439987825       12.3673117431       33.2600090492  MEOH      1791            0.0000000000
     33470      2483  MEOH      LP1A           11.0316603579       11.0181975297       33.7022730307  MEOH      1791            0.0000000000
     33471      2483  MEOH      LP1B           10.5130076267       11.3733156006       33.8957661828  MEOH      1791            0.0000000000
     33472      2484  MEOH      C1             20.7932622339       26.1295598903      -24.4339474672  MEOH      1792            0.0000000000
     33473      2484  MEOH      DC1            20.7865244039       26.1329383940      -24.4371621983  MEOH      1792            0.0000000000
     33474      2484  MEOH      O1             21.9318308122       26.8676760658      -24.8842577668  MEOH      1792            0.0000000000
     33475      2484  MEOH      DO1            21.9216319006       26.8732650380      -24.8954912245  MEOH      1792            0.0000000000
     33476      2484  MEOH      HO1            21.8049763830       27.7894935588      -24.6102861199  MEOH      1792            0.0000000000
     33477      2484  MEOH      HO2            22.6996086465       26.3873422750      -24.5368435363  MEOH      1792            0.0000000000
     33478      2484  MEOH      H1A            20.9177347027       25.0578290152      -24.6989390478  MEOH      1792            0.0000000000
     33479      2484  MEOH      H1B            19.8703138626       26.5149290215      -24.9176601268  MEOH      1792            0.0000000000
     33480      2484  MEOH      H1C            20.7010943613       26.2152817582      -23.3301006279  MEOH      1792            0.0000000000
     33481      2484  MEOH      LP1A           22.1827043880       26.8614001109      -24.6402842818  MEOH      1792            0.0000000000
     33482      2484  MEOH      LP1B           21.8760459660       26.9879783467      -25.2081642535  MEOH      1792            0.0000000000
     33483      2485  MEOH      C1             34.9762012559      -21.1708436822        5.0874225580  MEOH      1793            0.0000000000
     33484      2485  MEOH      DC1            34.9854161723      -21.1553745313        5.0868476036  MEOH      1793            0.0000000000
     33485      2485  MEOH      O1             34.7695893729      -20.6664041788        3.7681777455  MEOH      1793            0.0000000000
     33486      2485  MEOH      DO1            34.7851943856      -20.6506817817        3.7672433789  MEOH      1793            0.0000000000
     33487      2485  MEOH      HO1            33.8251259908      -20.4590865179        3.6913122268  MEOH      1793            0.0000000000
     33488      2485  MEOH      HO2            35.4561909932      -19.9994477167        3.6111831829  MEOH      1793            0.0000000000
     33489      2485  MEOH      H1A            35.9696031929      -21.6655342543        5.1399090357  MEOH      1793            0.0000000000
     33490      2485  MEOH      H1B            34.1927981208      -21.9194491642        5.3327597957  MEOH      1793            0.0000000000
     33491      2485  MEOH      H1C            34.9425265646      -20.3472366040        5.8323107362  MEOH      1793            0.0000000000
     33492      2485  MEOH      LP1A           34.8160957772      -20.3195328307        3.7640037496  MEOH      1793            0.0000000000
     33493      2485  MEOH      LP1B           34.6996047651      -20.9300045268        3.5488218447  MEOH      1793            0.0000000000
     33494      2486  MEOH      C1            -33.7795522773      -34.3251115319        9.8487136913  MEOH      1794            0.0000000000
     33495      2486  MEOH      DC1           -33.7655312915      -34.3344881317        9.8531965356  MEOH      1794            0.0000000000
     33496      2486  MEOH      O1            -34.4536030878      -33.1291831650       10.2314202708  MEOH      1794            0.0000000000
     33497      2486  MEOH      DO1           -34.4418053020      -33.1441212445       10.2415088386  MEOH      1794            0.0000000000
     33498      2486  MEOH      HO1           -35.3451072840      -33.1429927659        9.8494129893  MEOH      1794            0.0000000000
     33499      2486  MEOH      HO2           -34.3121360595      -33.0260962743       11.1854958303  MEOH      1794            0.0000000000
     33500      2486  MEOH      H1A           -32.6945704878      -34.2162399917       10.0615105563  MEOH      1794            0.0000000000
     33501      2486  MEOH      H1B           -33.9302993173      -34.4959683450        8.7613295459  MEOH      1794            0.0000000000
     33502      2486  MEOH      H1C           -34.1806790788      -35.1960488621       10.4098611372  MEOH      1794            0.0000000000
     33503      2486  MEOH      LP1A          -34.6188251364      -33.1771899700       10.5362103975  MEOH      1794            0.0000000000
     33504      2486  MEOH      LP1B          -34.3923063887      -32.8768776537        9.9967190913  MEOH      1794            0.0000000000
     33505      2487  MEOH      C1              8.3616980358      -21.6400413243      -14.9522332308  MEOH      1795            0.0000000000
     33506      2487  MEOH      DC1             8.3874778741      -21.6674056130      -14.9471983836  MEOH      1795            0.0000000000
     33507      2487  MEOH      O1              9.7135590667      -21.3228310908      -15.3095114947  MEOH      1795            0.0000000000
     33508      2487  MEOH      DO1             9.7448094742      -21.3716866944      -15.2973033629  MEOH      1795            0.0000000000
     33509      2487  MEOH      HO1             9.7891985895      -21.5273237488      -16.2546894763  MEOH      1795            0.0000000000
     33510      2487  MEOH      HO2             9.8146297792      -20.3862932114      -15.0780346891  MEOH      1795            0.0000000000
     33511      2487  MEOH      H1A             8.0848126219      -21.1541538976      -13.9922494403  MEOH      1795            0.0000000000
     33512      2487  MEOH      H1B             8.2260136859      -22.7359442098      -14.8301364520  MEOH      1795            0.0000000000
     33513      2487  MEOH      H1C             7.6738043458      -21.2556666647      -15.7354186446  MEOH      1795            0.0000000000
     33514      2487  MEOH      LP1A            9.7359182007      -20.9876317740      -15.4077025692  MEOH      1795            0.0000000000
     33515      2487  MEOH      LP1B            9.9190328241      -21.6018386617      -15.2601626302  MEOH      1795            0.0000000000
     33516      2488  MEOH      C1             -4.3703029031      -28.3964081952      -24.3534465045  MEOH      1796            0.0000000000
     33517      2488  MEOH      DC1            -4.3478535518      -28.4045046453      -24.3615399459  MEOH      1796            0.0000000000
     33518      2488  MEOH      O1             -3.4673429048      -29.4624405754      -24.6607798809  MEOH      1796            0.0000000000
     33519      2488  MEOH      DO1            -3.4523211945      -29.4671590637      -24.6678688454  MEOH      1796            0.0000000000
     33520      2488  MEOH      HO1            -3.9864508420      -30.1229386588      -25.1457223839  MEOH      1796            0.0000000000
     33521      2488  MEOH      HO2            -2.6726290830      -29.0543734193      -25.0386834905  MEOH      1796            0.0000000000
     33522      2488  MEOH      H1A            -3.9040345932      -27.7187735489      -23.6066358515  MEOH      1796            0.0000000000
     33523      2488  MEOH      H1B            -5.3145591776      -28.7933118050      -23.9231342767  MEOH      1796            0.0000000000
     33524      2488  MEOH      H1C            -4.6244972592      -27.8174446511      -25.2669602942  MEOH      1796            0.0000000000
     33525      2488  MEOH      LP1A           -3.3100964634      -29.4014617792      -24.9674639905  MEOH      1796            0.0000000000
     33526      2488  MEOH      LP1B           -3.4649788261      -29.6961710895      -24.4002718044  MEOH      1796            0.0000000000
     33527      2489  MEOH      C1             -8.8416583583      -36.0806136365      -11.8118715782  MEOH      1797            0.0000000000
     33528      2489  MEOH      DC1            -8.8442006795      -36.0879873533      -11.8081081833  MEOH      1797            0.0000000000
     33529      2489  MEOH      O1             -8.7442781326      -34.7486190595      -11.3279010127  MEOH      1797            0.0000000000
     33530      2489  MEOH      DO1            -8.7522723204      -34.7469424868      -11.3221885803  MEOH      1797            0.0000000000
     33531      2489  MEOH      HO1            -8.2066140899      -34.2561520682      -11.9676616239  MEOH      1797            0.0000000000
     33532      2489  MEOH      HO2            -9.6458105894      -34.4792056848      -11.0921985214  MEOH      1797            0.0000000000
     33533      2489  MEOH      H1A            -9.2531973595      -36.7015433876      -10.9876125803  MEOH      1797            0.0000000000
     33534      2489  MEOH      H1B            -7.8321760201      -36.4784610501      -12.0505844694  MEOH      1797            0.0000000000
     33535      2489  MEOH      H1C            -9.5130850155      -36.1312505058      -12.6955814592  MEOH      1797            0.0000000000
     33536      2489  MEOH      LP1A           -9.0111552984      -34.5573828968      -11.4491664588  MEOH      1797            0.0000000000
     33537      2489  MEOH      LP1B           -8.4673984154      -34.7181985256      -11.1159759945  MEOH      1797            0.0000000000
     33538      2490  MEOH      C1             -6.8015023999       28.6442265620      -17.5057833582  MEOH      1798            0.0000000000
     33539      2490  MEOH      DC1            -6.7867333233       28.6418986158      -17.5137707899  MEOH      1798            0.0000000000
     33540      2490  MEOH      O1             -6.7559341664       30.0722673386      -17.4369688147  MEOH      1798            0.0000000000
     33541      2490  MEOH      DO1            -6.7357896837       30.0759469247      -17.4658765308  MEOH      1798            0.0000000000
     33542      2490  MEOH      HO1            -6.1519652135       30.3324256450      -16.7239196162  MEOH      1798            0.0000000000
     33543      2490  MEOH      HO2            -6.7236667726       30.4145376173      -18.3440023710  MEOH      1798            0.0000000000
     33544      2490  MEOH      H1A            -7.7223937314       28.3149882682      -18.0329287858  MEOH      1798            0.0000000000
     33545      2490  MEOH      H1B            -6.8308287107       28.2179875840      -16.4802194640  MEOH      1798            0.0000000000
     33546      2490  MEOH      H1C            -5.9205972825       28.2565610535      -18.0607992404  MEOH      1798            0.0000000000
     33547      2490  MEOH      LP1A           -6.5053236259       30.1943749482      -17.6485913291  MEOH      1798            0.0000000000
     33548      2490  MEOH      LP1B           -7.0063457064       30.1898325890      -17.2225568921  MEOH      1798            0.0000000000
     33549      2491  MEOH      C1            -35.8331898109       12.0499153661      -11.9255141331  MEOH      1799            0.0000000000
     33550      2491  MEOH      DC1           -35.8560190299       12.0493824261      -11.9252610162  MEOH      1799            0.0000000000
     33551      2491  MEOH      O1            -34.9474960338       11.9930058349      -10.8118242343  MEOH      1799            0.0000000000
     33552      2491  MEOH      DO1           -34.9609506418       11.9956429412      -10.8156205164  MEOH      1799            0.0000000000
     33553      2491  MEOH      HO1           -34.5611723949       11.1034899850      -10.7914379939  MEOH      1799            0.0000000000
     33554      2491  MEOH      HO2           -34.3643530462       12.7613842162      -10.9139952681  MEOH      1799            0.0000000000
     33555      2491  MEOH      H1A           -36.4133010912       12.9963790962      -11.8808116620  MEOH      1799            0.0000000000
     33556      2491  MEOH      H1B           -36.5035487380       11.1644451213      -11.8958096837  MEOH      1799            0.0000000000
     33557      2491  MEOH      H1C           -35.2682051959       12.0306745862      -12.8819362048  MEOH      1799            0.0000000000
     33558      2491  MEOH      LP1A          -34.6273241929       12.0965583050      -10.9080888603  MEOH      1799            0.0000000000
     33559      2491  MEOH      LP1B          -35.1213084890       11.8907796914      -10.5257489890  MEOH      1799            0.0000000000
     33560      2492  MEOH      C1             -0.8592656400       28.2983183385      -30.0424754603  MEOH      1800            0.0000000000
     33561      2492  MEOH      DC1            -0.8532910474       28.2968427581      -30.0376357914  MEOH      1800            0.0000000000
     33562      2492  MEOH      O1             -2.2363254632       28.0887616081      -30.3134341258  MEOH      1800            0.0000000000
     33563      2492  MEOH      DO1            -2.2343383069       28.0965351464      -30.3081040633  MEOH      1800            0.0000000000
     33564      2492  MEOH      HO1            -2.3009376757       27.6275442308      -31.1643182500  MEOH      1800            0.0000000000
     33565      2492  MEOH      HO2            -2.6051138409       27.6957610739      -29.5069319783  MEOH      1800            0.0000000000
     33566      2492  MEOH      H1A            -0.7555077289       28.8873289057      -29.1061946009  MEOH      1800            0.0000000000
     33567      2492  MEOH      H1B            -0.4017470621       28.8891239474      -30.8646351074  MEOH      1800            0.0000000000
     33568      2492  MEOH      H1C            -0.3472164506       27.3202799116      -29.9177058177  MEOH      1800            0.0000000000
     33569      2492  MEOH      LP1A           -2.3404899486       27.7843901965      -30.1755653340  MEOH      1800            0.0000000000
     33570      2492  MEOH      LP1B           -2.3672267107       28.3629658875      -30.4871490549  MEOH      1800            0.0000000000
     33571      2493  MEOH      C1              5.1162522455      -12.7124291946       -2.5475931342  MEOH      1801            0.0000000000
     33572      2493  MEOH      DC1             5.1239010930      -12.7097817491       -2.5448509491  MEOH      1801            0.0000000000
     33573      2493  MEOH      O1              6.3802412187      -13.3718532012       -2.6549990075  MEOH      1801            0.0000000000
     33574      2493  MEOH      DO1             6.3883892006      -13.3744999970       -2.6468463895  MEOH      1801            0.0000000000
     33575      2493  MEOH      HO1             6.2250394733      -14.1619380367       -3.1959041479  MEOH      1801            0.0000000000
     33576      2493  MEOH      HO2             7.0005425393      -12.6945837550       -2.9671405947  MEOH      1801            0.0000000000
     33577      2493  MEOH      H1A             5.2159373501      -11.8146135439       -1.9008235170  MEOH      1801            0.0000000000
     33578      2493  MEOH      H1B             4.3642767185      -13.3988205160       -2.1029351074  MEOH      1801            0.0000000000
     33579      2493  MEOH      H1C             4.7657793565      -12.3953232869       -3.5530450717  MEOH      1801            0.0000000000
     33580      2493  MEOH      LP1A            6.5555498351      -13.2501724452       -2.9324168921  MEOH      1801            0.0000000000
     33581      2493  MEOH      LP1B            6.4214239078      -13.5957517501       -2.3891542673  MEOH      1801            0.0000000000
     33582      2494  MEOH      C1            -14.7977075971      -20.1880813580      -21.0523204106  MEOH      1802            0.0000000000
     33583      2494  MEOH      DC1           -14.7811071874      -20.1894938296      -21.0581230465  MEOH      1802            0.0000000000
     33584      2494  MEOH      O1            -13.4195243335      -19.8250997959      -20.9208826342  MEOH      1802            0.0000000000
     33585      2494  MEOH      DO1           -13.4043172220      -19.8280864346      -20.9119392932  MEOH      1802            0.0000000000
     33586      2494  MEOH      HO1           -12.9313535161      -20.3673180265      -21.5600920239  MEOH      1802            0.0000000000
     33587      2494  MEOH      HO2           -13.3991116269      -18.8583984837      -20.9981606677  MEOH      1802            0.0000000000
     33588      2494  MEOH      H1A           -15.4121099615      -19.6084647343      -20.3306034964  MEOH      1802            0.0000000000
     33589      2494  MEOH      H1B           -14.9334523441      -21.2712549494      -20.8458516816  MEOH      1802            0.0000000000
     33590      2494  MEOH      H1C           -15.1569182366      -19.9625993016      -22.0791828937  MEOH      1802            0.0000000000
     33591      2494  MEOH      LP1A          -13.3453307720      -19.5576067306      -21.1340557456  MEOH      1802            0.0000000000
     33592      2494  MEOH      LP1B          -13.2659465944      -20.0243277076      -20.6775266866  MEOH      1802            0.0000000000
     33593      2495  MEOH      C1              4.3621535293      -16.5904104694       23.5186037929  MEOH      1803            0.0000000000
     33594      2495  MEOH      DC1             4.3518699565      -16.6008239899       23.5078433253  MEOH      1803            0.0000000000
     33595      2495  MEOH      O1              5.4202251328      -17.3988816718       24.0426092262  MEOH      1803            0.0000000000
     33596      2495  MEOH      DO1             5.4102824950      -17.3972238459       24.0314047645  MEOH      1803            0.0000000000
     33597      2495  MEOH      HO1             5.5981544093      -18.1445840638       23.4483288925  MEOH      1803            0.0000000000
     33598      2495  MEOH      HO2             6.1358300044      -16.7853189440       24.2714114294  MEOH      1803            0.0000000000
     33599      2495  MEOH      H1A             4.1138403004      -15.7919077797       24.2500783282  MEOH      1803            0.0000000000
     33600      2495  MEOH      H1B             3.4549225718      -17.2077308146       23.3449127422  MEOH      1803            0.0000000000
     33601      2495  MEOH      H1C             4.6775881013      -16.1102002917       22.5676988459  MEOH      1803            0.0000000000
     33602      2495  MEOH      LP1A            5.7291290137      -17.2807175424       23.9280857310  MEOH      1803            0.0000000000
     33603      2495  MEOH      LP1B            5.2892263029      -17.6452925866       24.2538459834  MEOH      1803            0.0000000000
     33604      2496  MEOH      C1             -1.3183892620      -32.5490424697       28.1421086399  MEOH      1804            0.0000000000
     33605      2496  MEOH      DC1            -1.3236824124      -32.5486264948       28.1338755373  MEOH      1804            0.0000000000
     33606      2496  MEOH      O1             -1.0754162080      -31.2502211449       27.5927878304  MEOH      1804            0.0000000000
     33607      2496  MEOH      DO1            -1.0800217622      -31.2479892579       27.5890084112  MEOH      1804            0.0000000000
     33608      2496  MEOH      HO1            -0.2477407020      -31.2938427152       27.0888528978  MEOH      1804            0.0000000000
     33609      2496  MEOH      HO2            -1.9023098752      -30.9690848844       27.1707578953  MEOH      1804            0.0000000000
     33610      2496  MEOH      H1A            -2.1966705108      -32.5039026995       28.8210088166  MEOH      1804            0.0000000000
     33611      2496  MEOH      H1B            -0.4351768585      -32.8926675988       28.7219177645  MEOH      1804            0.0000000000
     33612      2496  MEOH      H1C            -1.5175637746      -33.2867772259       27.3356361075  MEOH      1804            0.0000000000
     33613      2496  MEOH      LP1A           -1.2286155983      -31.2222408366       27.2793439772  MEOH      1804            0.0000000000
     33614      2496  MEOH      LP1B           -0.8912253081      -31.0570390541       27.8191821594  MEOH      1804            0.0000000000
     33615      2497  MEOH      C1             10.4894456081       -2.7279861248       16.0076110661  MEOH      1805            0.0000000000
     33616      2497  MEOH      DC1            10.4904122921       -2.7259649923       15.9967684230  MEOH      1805            0.0000000000
     33617      2497  MEOH      O1              9.1748757434       -2.2217146044       16.2685134670  MEOH      1805            0.0000000000
     33618      2497  MEOH      DO1             9.1682942083       -2.2355065062       16.2516294595  MEOH      1805            0.0000000000
     33619      2497  MEOH      HO1             8.9516044661       -1.5259793089       15.6305461198  MEOH      1805            0.0000000000
     33620      2497  MEOH      HO2             8.5982666883       -2.9780748732       16.4591469932  MEOH      1805            0.0000000000
     33621      2497  MEOH      H1A            10.8422302397       -3.2969763399       16.8942418454  MEOH      1805            0.0000000000
     33622      2497  MEOH      H1B            11.1979801741       -1.8933289278       15.8188065797  MEOH      1805            0.0000000000
     33623      2497  MEOH      H1C            10.4753433389       -3.4113752557       15.1317678025  MEOH      1805            0.0000000000
     33624      2497  MEOH      LP1A            8.9373203122       -2.4091651515       16.0926450233  MEOH      1805            0.0000000000
     33625      2497  MEOH      LP1B            9.1916937786       -1.9569410265       16.4967942287  MEOH      1805            0.0000000000
     33626      2498  MEOH      C1             18.9622470857      -32.2835398652       27.5928250627  MEOH      1806            0.0000000000
     33627      2498  MEOH      DC1            18.9725073688      -32.2670596947       27.6019193575  MEOH      1806            0.0000000000
     33628      2498  MEOH      O1             18.7630266663      -33.2404651900       26.5534224954  MEOH      1806            0.0000000000
     33629      2498  MEOH      DO1            18.7847407302      -33.2166442207       26.5424203240  MEOH      1806            0.0000000000
     33630      2498  MEOH      HO1            18.6860036721      -34.1136005041       26.9688766831  MEOH      1806            0.0000000000
     33631      2498  MEOH      HO2            17.9910041061      -32.9150101068       26.0645869858  MEOH      1806            0.0000000000
     33632      2498  MEOH      H1A            18.9135253623      -31.2626525668       27.1572377377  MEOH      1806            0.0000000000
     33633      2498  MEOH      H1B            19.9529204351      -32.4367150020       28.0718080410  MEOH      1806            0.0000000000
     33634      2498  MEOH      H1C            18.1563284682      -32.3816289280       28.3512409896  MEOH      1806            0.0000000000
     33635      2498  MEOH      LP1A           18.4211669595      -33.2759588859       26.4873003479  MEOH      1806            0.0000000000
     33636      2498  MEOH      LP1B           19.0719047780      -33.3571453669       26.4373188845  MEOH      1806            0.0000000000
     33637      2499  MEOH      C1             20.2733984660      -31.3310999510       11.1510125142  MEOH      1807            0.0000000000
     33638      2499  MEOH      DC1            20.2617543754      -31.3288934647       11.1386466810  MEOH      1807            0.0000000000
     33639      2499  MEOH      O1             21.5103411928      -30.6517611062       11.3568515692  MEOH      1807            0.0000000000
     33640      2499  MEOH      DO1            21.4994466776      -30.6570511745       11.3413740506  MEOH      1807            0.0000000000
     33641      2499  MEOH      HO1            22.2101006614      -31.2916308518       11.5613103542  MEOH      1807            0.0000000000
     33642      2499  MEOH      HO2            21.5904438800      -29.9710103459       10.6705120296  MEOH      1807            0.0000000000
     33643      2499  MEOH      H1A            19.4320840832      -30.6055898512       11.1631040873  MEOH      1807            0.0000000000
     33644      2499  MEOH      H1B            20.1068939664      -32.0638420105       11.9693561624  MEOH      1807            0.0000000000
     33645      2499  MEOH      H1C            20.2894500978      -31.8451216484       10.1662054063  MEOH      1807            0.0000000000
     33646      2499  MEOH      LP1A           21.6800232167      -30.6172534834       11.0526851103  MEOH      1807            0.0000000000
     33647      2499  MEOH      LP1B           21.5431202629      -30.5621770244       11.6936010679  MEOH      1807            0.0000000000
     33648      2500  MEOH      C1            -18.9270035855      -34.6833677250      -17.1172804427  MEOH      1808            0.0000000000
     33649      2500  MEOH      DC1           -18.9174302063      -34.6837311048      -17.1137049566  MEOH      1808            0.0000000000
     33650      2500  MEOH      O1            -20.2726647333      -34.4354662530      -16.7266131794  MEOH      1808            0.0000000000
     33651      2500  MEOH      DO1           -20.2674966459      -34.4392132079      -16.7294640491  MEOH      1808            0.0000000000
     33652      2500  MEOH      HO1           -20.7033475539      -33.9625325802      -17.4558223743  MEOH      1808            0.0000000000
     33653      2500  MEOH      HO2           -20.6174474623      -35.2928607388      -16.4318258568  MEOH      1808            0.0000000000
     33654      2500  MEOH      H1A           -18.3859788024      -35.1380529514      -16.2600322115  MEOH      1808            0.0000000000
     33655      2500  MEOH      H1B           -18.4248599151      -33.7332381092      -17.3991074239  MEOH      1808            0.0000000000
     33656      2500  MEOH      H1C           -18.8954016866      -35.3915957558      -17.9726957678  MEOH      1808            0.0000000000
     33657      2500  MEOH      LP1A          -20.4761364370      -34.7041695216      -16.8209414319  MEOH      1808            0.0000000000
     33658      2500  MEOH      LP1B          -20.2936518755      -34.1302930930      -16.5565282528  MEOH      1808            0.0000000000
     33659      2501  MEOH      C1             31.9683076717       -3.9391313690      -36.5277388648  MEOH      1809            0.0000000000
     33660      2501  MEOH      DC1            31.9750528149       -3.9446072413      -36.5240046694  MEOH      1809            0.0000000000
     33661      2501  MEOH      O1             31.6068807531       -5.2669155239      -36.8995115644  MEOH      1809            0.0000000000
     33662      2501  MEOH      DO1            31.6115558481       -5.2706498753      -36.8901057425  MEOH      1809            0.0000000000
     33663      2501  MEOH      HO1            31.9566559416       -5.8717091617      -36.2266208048  MEOH      1809            0.0000000000
     33664      2501  MEOH      HO2            30.6580827121       -5.2364321290      -37.0988932082  MEOH      1809            0.0000000000
     33665      2501  MEOH      H1A            31.8329157453       -3.2544555765      -37.3921514327  MEOH      1809            0.0000000000
     33666      2501  MEOH      H1B            33.0316809844       -3.9363023193      -36.2059467041  MEOH      1809            0.0000000000
     33667      2501  MEOH      H1C            31.3578745793       -3.5745456791      -35.6740587641  MEOH      1809            0.0000000000
     33668      2501  MEOH      LP1A           31.2942824270       -5.3481001798      -36.7646362957  MEOH      1809            0.0000000000
     33669      2501  MEOH      LP1B           31.8534786363       -5.4046868675      -37.1061720128  MEOH      1809            0.0000000000
     33670      2502  MEOH      C1             -7.3283610642      -16.9040459138       29.4472593861  MEOH      1810            0.0000000000
     33671      2502  MEOH      DC1            -7.3227648736      -16.9096471915       29.4554126732  MEOH      1810            0.0000000000
     33672      2502  MEOH      O1             -7.9168244573      -17.0063645175       30.7422721018  MEOH      1810            0.0000000000
     33673      2502  MEOH      DO1            -7.9061868585      -17.0158330117       30.7486149411  MEOH      1810            0.0000000000
     33674      2502  MEOH      HO1            -8.2388032679      -16.1215767904       30.9754679961  MEOH      1810            0.0000000000
     33675      2502  MEOH      HO2            -8.5447666332      -17.7440657521       30.6934303960  MEOH      1810            0.0000000000
     33676      2502  MEOH      H1A            -6.8873515131      -17.8818775450       29.1579898250  MEOH      1810            0.0000000000
     33677      2502  MEOH      H1B            -6.5302165856      -16.1312028572       29.4473001267  MEOH      1810            0.0000000000
     33678      2502  MEOH      H1C            -8.1033583666      -16.6170638499       28.7047356650  MEOH      1810            0.0000000000
     33679      2502  MEOH      LP1A           -8.2554665583      -17.0900293627       30.7136064235  MEOH      1810            0.0000000000
     33680      2502  MEOH      LP1B           -7.6744254279      -16.9510671992       30.9886151901  MEOH      1810            0.0000000000
     33681      2503  MEOH      C1             18.3052718129      -10.1556360873        0.9158642921  MEOH      1811            0.0000000000
     33682      2503  MEOH      DC1            18.2977144828      -10.1445425701        0.9253866139  MEOH      1811            0.0000000000
     33683      2503  MEOH      O1             18.9425737823       -9.2256368505        0.0390164144  MEOH      1811            0.0000000000
     33684      2503  MEOH      DO1            18.9444336003       -9.2126106124        0.0585209319  MEOH      1811            0.0000000000
     33685      2503  MEOH      HO1            19.3285539433       -9.7475791357       -0.6817439947  MEOH      1811            0.0000000000
     33686      2503  MEOH      HO2            18.2674211973       -8.5631144337       -0.1757696055  MEOH      1811            0.0000000000
     33687      2503  MEOH      H1A            17.8469264595       -9.6090746332        1.7676336941  MEOH      1811            0.0000000000
     33688      2503  MEOH      H1B            19.0490319854      -10.8829833271        1.3058742901  MEOH      1811            0.0000000000
     33689      2503  MEOH      H1C            17.5089332920      -10.7038572691        0.3684891947  MEOH      1811            0.0000000000
     33690      2503  MEOH      LP1A           18.7151837352       -9.1134429144       -0.2022433775  MEOH      1811            0.0000000000
     33691      2503  MEOH      LP1B           19.2735430500       -9.1732879908        0.1401051908  MEOH      1811            0.0000000000
     33692      2504  MEOH      C1            -32.0255312676      -28.7324445370       21.2641912860  MEOH      1812            0.0000000000
     33693      2504  MEOH      DC1           -32.0267208590      -28.7388431982       21.2555594974  MEOH      1812            0.0000000000
     33694      2504  MEOH      O1            -33.2983422581      -28.6312486126       20.6245339147  MEOH      1812            0.0000000000
     33695      2504  MEOH      DO1           -33.2963970138      -28.6356651597       20.6180876558  MEOH      1812            0.0000000000
     33696      2504  MEOH      HO1           -33.2181035478      -29.0079880274       19.7342928447  MEOH      1812            0.0000000000
     33697      2504  MEOH      HO2           -33.9422697858      -28.9875010898       21.2564686522  MEOH      1812            0.0000000000
     33698      2504  MEOH      H1A           -32.0454000071      -28.1848501174       22.2306624883  MEOH      1812            0.0000000000
     33699      2504  MEOH      H1B           -31.2475404663      -28.2811166660       20.6119992376  MEOH      1812            0.0000000000
     33700      2504  MEOH      H1C           -31.7724315078      -29.7950217955       21.4671471474  MEOH      1812            0.0000000000
     33701      2504  MEOH      LP1A          -33.4898600664      -28.9160118522       20.6933149187  MEOH      1812            0.0000000000
     33702      2504  MEOH      LP1B          -33.3245390719      -28.3245657281       20.4579225847  MEOH      1812            0.0000000000
     33703      2505  MEOH      C1             17.4969194774      -16.4966870177       14.6520228490  MEOH      1813            0.0000000000
     33704      2505  MEOH      DC1            17.5118771139      -16.4846151813       14.6407109422  MEOH      1813            0.0000000000
     33705      2505  MEOH      O1             18.1633150766      -15.4712434088       13.9018689794  MEOH      1813            0.0000000000
     33706      2505  MEOH      DO1            18.1656881360      -15.4637354302       13.8825806735  MEOH      1813            0.0000000000
     33707      2505  MEOH      HO1            18.2391858432      -14.7042259098       14.4907898425  MEOH      1813            0.0000000000
     33708      2505  MEOH      HO2            18.9582205755      -15.8834203897       13.5288604202  MEOH      1813            0.0000000000
     33709      2505  MEOH      H1A            17.3359843901      -17.3923701810       14.0147061531  MEOH      1813            0.0000000000
     33710      2505  MEOH      H1B            16.5079123355      -16.1321398867       15.0031514071  MEOH      1813            0.0000000000
     33711      2505  MEOH      H1C            18.1021928529      -16.7930530334       15.5352738471  MEOH      1813            0.0000000000
     33712      2505  MEOH      LP1A           18.5098717835      -15.4999476484       13.9415491455  MEOH      1813            0.0000000000
     33713      2505  MEOH      LP1B           17.9286061242      -15.2784553912       13.7279595550  MEOH      1813            0.0000000000
     33714      2506  MEOH      C1             -5.0193780552       10.9313065182      -22.7821239074  MEOH      1814            0.0000000000
     33715      2506  MEOH      DC1            -4.9975626343       10.9461453190      -22.7762665150  MEOH      1814            0.0000000000
     33716      2506  MEOH      O1             -3.7377420444       11.2775852483      -22.2523816029  MEOH      1814            0.0000000000
     33717      2506  MEOH      DO1            -3.7111818672       11.2799096970      -22.2444390431  MEOH      1814            0.0000000000
     33718      2506  MEOH      HO1            -3.1443118256       11.1788605462      -23.0132981611  MEOH      1814            0.0000000000
     33719      2506  MEOH      HO2            -3.8580485057       12.1452479984      -21.8357430210  MEOH      1814            0.0000000000
     33720      2506  MEOH      H1A            -5.8064951265       10.9988400179      -22.0009664694  MEOH      1814            0.0000000000
     33721      2506  MEOH      H1B            -4.9997090313        9.8925527151      -23.1757286152  MEOH      1814            0.0000000000
     33722      2506  MEOH      H1C            -5.2728400160       11.6201424848      -23.6161401226  MEOH      1814            0.0000000000
     33723      2506  MEOH      LP1A           -3.6842940885       11.6220452574      -22.2838556894  MEOH      1814            0.0000000000
     33724      2506  MEOH      LP1B           -3.5812764748       10.9929935895      -22.1218974533  MEOH      1814            0.0000000000
     33725      2507  MEOH      C1            -24.3839470630       21.3490345890       12.5204913237  MEOH      1815            0.0000000000
     33726      2507  MEOH      DC1           -24.3784864767       21.3305950451       12.4937535794  MEOH      1815            0.0000000000
     33727      2507  MEOH      O1            -24.9908743523       22.6360915752       12.4939109117  MEOH      1815            0.0000000000
     33728      2507  MEOH      DO1           -24.9849308896       22.6174228410       12.4723978157  MEOH      1815            0.0000000000
     33729      2507  MEOH      HO1           -24.3468712741       23.2938999529       12.7996038515  MEOH      1815            0.0000000000
     33730      2507  MEOH      HO2           -25.4536547897       22.7087623869       11.6445268869  MEOH      1815            0.0000000000
     33731      2507  MEOH      H1A           -25.1789425846       20.5730019559       12.5292362126  MEOH      1815            0.0000000000
     33732      2507  MEOH      H1B           -23.7718380401       21.2132402587       13.4376627607  MEOH      1815            0.0000000000
     33733      2507  MEOH      H1C           -23.7192281235       21.2099536089       11.6412153643  MEOH      1815            0.0000000000
     33734      2507  MEOH      LP1A          -24.9433163124       22.7844174388       12.1804820186  MEOH      1815            0.0000000000
     33735      2507  MEOH      LP1B          -25.1502641976       22.6996017374       12.7989704740  MEOH      1815            0.0000000000
     33736      2508  MEOH      C1            -36.1361755688        4.3389186543      -25.3519886675  MEOH      1816            0.0000000000
     33737      2508  MEOH      DC1           -36.1410624064        4.3390580629      -25.3453180726  MEOH      1816            0.0000000000
     33738      2508  MEOH      O1            -37.4120995193        4.6258984094      -25.9130031585  MEOH      1816            0.0000000000
     33739      2508  MEOH      DO1           -37.4180328237        4.6259071732      -25.9063452712  MEOH      1816            0.0000000000
     33740      2508  MEOH      HO1           -37.3253808641        5.4837721393      -26.3573369734  MEOH      1816            0.0000000000
     33741      2508  MEOH      HO2           -37.6349962047        3.8400689263      -26.4361561870  MEOH      1816            0.0000000000
     33742      2508  MEOH      H1A           -36.1605524289        3.3804412416      -24.7906974600  MEOH      1816            0.0000000000
     33743      2508  MEOH      H1B           -35.8317170619        5.1570499016      -24.6647570616  MEOH      1816            0.0000000000
     33744      2508  MEOH      H1C           -35.3958130302        4.2474933858      -26.1752903933  MEOH      1816            0.0000000000
     33745      2508  MEOH      LP1A          -37.4337021415        4.4923841347      -26.2358146595  MEOH      1816            0.0000000000
     33746      2508  MEOH      LP1B          -37.6092149031        4.7977941279      -25.6804147077  MEOH      1816            0.0000000000
     33747      2509  MEOH      C1            -13.3196674935       10.6726068469       24.8867677393  MEOH      1817            0.0000000000
     33748      2509  MEOH      DC1           -13.3249157566       10.6894892728       24.8958677040  MEOH      1817            0.0000000000
     33749      2509  MEOH      O1            -13.5752634873       10.9384292570       26.2713271869  MEOH      1817            0.0000000000
     33750      2509  MEOH      DO1           -13.5703056710       10.9558384787       26.2822048181  MEOH      1817            0.0000000000
     33751      2509  MEOH      HO1           -14.4954460338       10.6692654765       26.4186870882  MEOH      1817            0.0000000000
     33752      2509  MEOH      HO2           -12.8730046151       10.4751990884       26.7541835723  MEOH      1817            0.0000000000
     33753      2509  MEOH      H1A           -12.2518399900       10.8541014009       24.6395327302  MEOH      1817            0.0000000000
     33754      2509  MEOH      H1B           -13.9466082562       11.3321094124       24.2493333132  MEOH      1817            0.0000000000
     33755      2509  MEOH      H1C           -13.5550862721        9.6114817796       24.6567403697  MEOH      1817            0.0000000000
     33756      2509  MEOH      LP1A          -13.4902081510       10.6592415026       26.4645104873  MEOH      1817            0.0000000000
     33757      2509  MEOH      LP1B          -13.6922959794       11.2659212787       26.3107273327  MEOH      1817            0.0000000000
     33758      2510  MEOH      C1              9.7925968028        0.3481422600       29.6899218453  MEOH      1818            0.0000000000
     33759      2510  MEOH      DC1             9.7974977309        0.3480886856       29.6903860005  MEOH      1818            0.0000000000
     33760      2510  MEOH      O1              9.2245084760       -0.2333017300       28.5120980300  MEOH      1818            0.0000000000
     33761      2510  MEOH      DO1             9.2249796302       -0.2293133041       28.5122002048  MEOH      1818            0.0000000000
     33762      2510  MEOH      HO1             8.2596780208       -0.1623050151       28.5825370858  MEOH      1818            0.0000000000
     33763      2510  MEOH      HO2             9.6871719928        0.1702563680       27.7611097932  MEOH      1818            0.0000000000
     33764      2510  MEOH      H1A            10.9005004554        0.2836366389       29.6378687824  MEOH      1818            0.0000000000
     33765      2510  MEOH      H1B             9.4462369479       -0.1988553532       30.5927781265  MEOH      1818            0.0000000000
     33766      2510  MEOH      H1C             9.4960069894        1.4152142827       29.7777442908  MEOH      1818            0.0000000000
     33767      2510  MEOH      LP1A            9.1928687946        0.0095287995       28.2620335094  MEOH      1818            0.0000000000
     33768      2510  MEOH      LP1B            9.1716412517       -0.5757816196       28.5612160698  MEOH      1818            0.0000000000
     33769      2511  MEOH      C1            -16.9155869289      -26.5200533648       13.2183876777  MEOH      1819            0.0000000000
     33770      2511  MEOH      DC1           -16.9035252323      -26.5343401986       13.1982674326  MEOH      1819            0.0000000000
     33771      2511  MEOH      O1            -17.2672682158      -26.7254501919       11.8522540577  MEOH      1819            0.0000000000
     33772      2511  MEOH      DO1           -17.2439451701      -26.7314247547       11.8394572223  MEOH      1819            0.0000000000
     33773      2511  MEOH      HO1           -16.9704667295      -27.6109777991       11.5902431142  MEOH      1819            0.0000000000
     33774      2511  MEOH      HO2           -18.2149743602      -26.5272138660       11.7934711981  MEOH      1819            0.0000000000
     33775      2511  MEOH      H1A           -17.1946877977      -25.4843349865       13.5077164637  MEOH      1819            0.0000000000
     33776      2511  MEOH      H1B           -15.8208098422      -26.6289500300       13.3730668517  MEOH      1819            0.0000000000
     33777      2511  MEOH      H1C           -17.4658533148      -27.2364572803       13.8651436875  MEOH      1819            0.0000000000
     33778      2511  MEOH      LP1A          -17.5887505383      -26.8621336387       11.8306496206  MEOH      1819            0.0000000000
     33779      2511  MEOH      LP1B          -17.0094896747      -26.6127689748       11.6440398241  MEOH      1819            0.0000000000
     33780      2512  MEOH      C1             16.8336394028       24.0555754685      -18.1352954664  MEOH      1820            0.0000000000
     33781      2512  MEOH      DC1            16.8397600193       24.0461028878      -18.1456485396  MEOH      1820            0.0000000000
     33782      2512  MEOH      O1             15.8653468471       25.1046020801      -18.2413808708  MEOH      1820            0.0000000000
     33783      2512  MEOH      DO1            15.8736271281       25.1047780581      -18.2715111194  MEOH      1820            0.0000000000
     33784      2512  MEOH      HO1            16.2579176851       25.9329112561      -17.9240607703  MEOH      1820            0.0000000000
     33785      2512  MEOH      HO2            15.3761913463       24.9930119329      -19.0715462374  MEOH      1820            0.0000000000
     33786      2512  MEOH      H1A            16.3101910117       23.0808341669      -18.0342896309  MEOH      1820            0.0000000000
     33787      2512  MEOH      H1B            17.4714024081       24.2138606920      -17.2394577927  MEOH      1820            0.0000000000
     33788      2512  MEOH      H1C            17.4687533341       24.0220022913      -19.0462423014  MEOH      1820            0.0000000000
     33789      2512  MEOH      LP1A           15.8860377088       25.2551737076      -18.5566586423  MEOH      1820            0.0000000000
     33790      2512  MEOH      LP1B           15.6751046169       25.1220146682      -17.9481152989  MEOH      1820            0.0000000000
     33791      2513  MEOH      C1            -15.5369327716        3.4519075768       26.9507498315  MEOH      1821            0.0000000000
     33792      2513  MEOH      DC1           -15.5515761023        3.4646666911       26.9521923631  MEOH      1821            0.0000000000
     33793      2513  MEOH      O1            -15.0540553269        2.1778772400       27.3475379517  MEOH      1821            0.0000000000
     33794      2513  MEOH      DO1           -15.0772031312        2.1783307575       27.3630186693  MEOH      1821            0.0000000000
     33795      2513  MEOH      HO1           -14.6684766490        1.7861927056       26.5482806031  MEOH      1821            0.0000000000
     33796      2513  MEOH      HO2           -14.4633358902        2.3599280282       28.0950726048  MEOH      1821            0.0000000000
     33797      2513  MEOH      H1A           -15.8488839118        4.0334400750       27.8445213013  MEOH      1821            0.0000000000
     33798      2513  MEOH      H1B           -16.3903752568        3.3312625495       26.2497493309  MEOH      1821            0.0000000000
     33799      2513  MEOH      H1C           -14.7257247429        3.9916704599       26.4169721940  MEOH      1821            0.0000000000
     33800      2513  MEOH      LP1A          -14.7241593379        2.2049965482       27.4612620894  MEOH      1821            0.0000000000
     33801      2513  MEOH      LP1B          -15.3061359575        1.9377647077       27.3114640341  MEOH      1821            0.0000000000
     33802      2514  MEOH      C1             34.0294097219       12.3116361119      -32.9219152806  MEOH      1822            0.0000000000
     33803      2514  MEOH      DC1            34.0336736600       12.3059350561      -32.9341871746  MEOH      1822            0.0000000000
     33804      2514  MEOH      O1             34.5793832363       11.0404524451      -32.5644571807  MEOH      1822            0.0000000000
     33805      2514  MEOH      DO1            34.5734312555       11.0345773906      -32.5660200304  MEOH      1822            0.0000000000
     33806      2514  MEOH      HO1            34.7852454772       10.5674882223      -33.3859348625  MEOH      1822            0.0000000000
     33807      2514  MEOH      HO2            35.2999368297       11.2384890562      -31.9460042557  MEOH      1822            0.0000000000
     33808      2514  MEOH      H1A            33.7240797353       12.8620659600      -32.0064254761  MEOH      1822            0.0000000000
     33809      2514  MEOH      H1B            33.1281983094       12.1821893084      -33.5586118449  MEOH      1822            0.0000000000
     33810      2514  MEOH      H1C            34.7819978261       12.9218626055      -33.4655656956  MEOH      1822            0.0000000000
     33811      2514  MEOH      LP1A           34.9265984500       11.0660545320      -32.5285945469  MEOH      1822            0.0000000000
     33812      2514  MEOH      LP1B           34.3230656428       10.8047182740      -32.5293759632  MEOH      1822            0.0000000000
     33813      2515  MEOH      C1            -11.6403002144       -1.6987388753      -35.9684640193  MEOH      1823            0.0000000000
     33814      2515  MEOH      DC1           -11.6378045704       -1.7172303168      -35.9592566295  MEOH      1823            0.0000000000
     33815      2515  MEOH      O1            -11.7418989386       -0.3133010494      -36.2937046867  MEOH      1823            0.0000000000
     33816      2515  MEOH      DO1           -11.7323843334       -0.3344594147      -36.2889667163  MEOH      1823            0.0000000000
     33817      2515  MEOH      HO1           -12.5059817812        0.0878248193      -35.8507877094  MEOH      1823            0.0000000000
     33818      2515  MEOH      HO2           -10.8534608939        0.0551619914      -36.1679556176  MEOH      1823            0.0000000000
     33819      2515  MEOH      H1A           -10.8959266123       -2.1680997075      -36.6466449330  MEOH      1823            0.0000000000
     33820      2515  MEOH      H1B           -12.6175214035       -2.2101064915      -36.1021162148  MEOH      1823            0.0000000000
     33821      2515  MEOH      H1C           -11.2867387342       -1.8236751225      -34.9226599202  MEOH      1823            0.0000000000
     33822      2515  MEOH      LP1A          -11.5567260530       -0.1229301181      -36.0657355858  MEOH      1823            0.0000000000
     33823      2515  MEOH      LP1B          -11.9347624613       -0.2720474921      -36.5828444550  MEOH      1823            0.0000000000
     33824      2516  MEOH      C1             -0.7537538137      -30.3303698020       31.7175903481  MEOH      1824            0.0000000000
     33825      2516  MEOH      DC1            -0.7602163530      -30.3241394709       31.7139051402  MEOH      1824            0.0000000000
     33826      2516  MEOH      O1             -0.6146265176      -31.5403443938       30.9789957517  MEOH      1824            0.0000000000
     33827      2516  MEOH      DO1            -0.6204819996      -31.5393235888       30.9798012869  MEOH      1824            0.0000000000
     33828      2516  MEOH      HO1             0.0281746765      -32.1008441311       31.4411068523  MEOH      1824            0.0000000000
     33829      2516  MEOH      HO2            -1.5167306792      -31.8544407949       30.8103199298  MEOH      1824            0.0000000000
     33830      2516  MEOH      H1A            -1.4213324262      -29.6325203569       31.1683491004  MEOH      1824            0.0000000000
     33831      2516  MEOH      H1B             0.2426536520      -29.8560699112       31.8461701993  MEOH      1824            0.0000000000
     33832      2516  MEOH      H1C            -1.1977919238      -30.5453354746       32.7130505015  MEOH      1824            0.0000000000
     33833      2516  MEOH      LP1A           -0.8502385233      -31.7750053540       31.0881800753  MEOH      1824            0.0000000000
     33834      2516  MEOH      LP1B           -0.3632639488      -31.5052461430       30.7379875115  MEOH      1824            0.0000000000
     33835      2517  MEOH      C1             30.7987718296       28.0162519541      -15.7432264271  MEOH      1825            0.0000000000
     33836      2517  MEOH      DC1            30.7832659447       28.0269933207      -15.7488997197  MEOH      1825            0.0000000000
     33837      2517  MEOH      O1             30.2980913447       28.9617459703      -16.6928749401  MEOH      1825            0.0000000000
     33838      2517  MEOH      DO1            30.2900570014       28.9779300992      -16.6939395463  MEOH      1825            0.0000000000
     33839      2517  MEOH      HO1            29.3300780394       28.9279557825      -16.6408320201  MEOH      1825            0.0000000000
     33840      2517  MEOH      HO2            30.7860274553       29.7861603545      -16.5406932227  MEOH      1825            0.0000000000
     33841      2517  MEOH      H1A            31.8930024484       27.8842650810      -15.8830828467  MEOH      1825            0.0000000000
     33842      2517  MEOH      H1B            30.3111337941       27.0286349680      -15.8886321921  MEOH      1825            0.0000000000
     33843      2517  MEOH      H1C            30.6156155655       28.3752125389      -14.7078897273  MEOH      1825            0.0000000000
     33844      2517  MEOH      LP1A           30.2658108021       29.2763566551      -16.5429480125  MEOH      1825            0.0000000000
     33845      2517  MEOH      LP1B           30.2573317766       28.8080939942      -17.0046917579  MEOH      1825            0.0000000000
     33846      2518  MEOH      C1              5.8232302679        4.6117804369       11.9080619203  MEOH      1826            0.0000000000
     33847      2518  MEOH      DC1             5.8302350485        4.6050236139       11.8895016876  MEOH      1826            0.0000000000
     33848      2518  MEOH      O1              6.4759907070        5.4223474075       10.9313334820  MEOH      1826            0.0000000000
     33849      2518  MEOH      DO1             6.4917760334        5.4188285916       10.9194328343  MEOH      1826            0.0000000000
     33850      2518  MEOH      HO1             6.0552032055        6.2927966564       11.0097935585  MEOH      1826            0.0000000000
     33851      2518  MEOH      HO2             7.4252859463        5.3145302481       11.0990058108  MEOH      1826            0.0000000000
     33852      2518  MEOH      H1A             6.2128947822        3.5730709544       11.8483528114  MEOH      1826            0.0000000000
     33853      2518  MEOH      H1B             4.7274285131        4.6129665767       11.7249277965  MEOH      1826            0.0000000000
     33854      2518  MEOH      H1C             6.0084923091        5.0042462110       12.9307884691  MEOH      1826            0.0000000000
     33855      2518  MEOH      LP1A            6.7585308768        5.5742643821       11.0713059267  MEOH      1826            0.0000000000
     33856      2518  MEOH      LP1B            6.3094871568        5.3974658018       10.6244825843  MEOH      1826            0.0000000000
     33857      2519  MEOH      C1             21.6914645855       17.5552110844      -11.3793878629  MEOH      1827            0.0000000000
     33858      2519  MEOH      DC1            21.6699422564       17.5509405703      -11.3864368642  MEOH      1827            0.0000000000
     33859      2519  MEOH      O1             20.3781198449       17.1679304289      -10.9624226553  MEOH      1827            0.0000000000
     33860      2519  MEOH      DO1            20.3589630766       17.1457959860      -10.9678926102  MEOH      1827            0.0000000000
     33861      2519  MEOH      HO1            19.7657157361       17.5404720997      -11.6159315772  MEOH      1827            0.0000000000
     33862      2519  MEOH      HO2            20.4223705598       16.2190702534      -10.7659379407  MEOH      1827            0.0000000000
     33863      2519  MEOH      H1A            22.4269482951       17.3580848993      -10.5703600630  MEOH      1827            0.0000000000
     33864      2519  MEOH      H1B            21.7186947103       18.6401651001      -11.6169890079  MEOH      1827            0.0000000000
     33865      2519  MEOH      H1C            21.9947403802       16.9766217639      -12.2780419637  MEOH      1827            0.0000000000
     33866      2519  MEOH      LP1A           20.2946351710       16.8581119657      -11.1022183244  MEOH      1827            0.0000000000
     33867      2519  MEOH      LP1B           20.2464121951       17.4074755238      -10.7438563211  MEOH      1827            0.0000000000
     33868      2520  MEOH      C1             30.2808791865       24.9891338004      -36.4093046821  MEOH      1828            0.0000000000
     33869      2520  MEOH      DC1            30.2659829311       24.9789929196      -36.3942889096  MEOH      1828            0.0000000000
     33870      2520  MEOH      O1             29.1562120427       24.2034714566      -36.8091359638  MEOH      1828            0.0000000000
     33871      2520  MEOH      DO1            29.1425445074       24.1978951395      -36.7993392126  MEOH      1828            0.0000000000
     33872      2520  MEOH      HO1            29.2006475236       23.3515976207      -36.3473606320  MEOH      1828            0.0000000000
     33873      2520  MEOH      HO2            28.3846265904       24.7903163379      -36.7749456863  MEOH      1828            0.0000000000
     33874      2520  MEOH      H1A            30.1925830891       25.9899732981      -36.8834830229  MEOH      1828            0.0000000000
     33875      2520  MEOH      H1B            31.2320077550       24.4968504532      -36.7048254992  MEOH      1828            0.0000000000
     33876      2520  MEOH      H1C            30.2984639197       25.1893487472      -35.3166355864  MEOH      1828            0.0000000000
     33877      2520  MEOH      LP1A           28.8844887435       24.2672378252      -36.5979481353  MEOH      1828            0.0000000000
     33878      2520  MEOH      LP1B           29.2359697552       24.0166074436      -37.0941281531  MEOH      1828            0.0000000000
     33879      2521  MEOH      C1             10.2695480625      -15.8219105817      -34.4029656269  MEOH      1829            0.0000000000
     33880      2521  MEOH      DC1            10.2757754785      -15.8404120627      -34.3951885785  MEOH      1829            0.0000000000
     33881      2521  MEOH      O1             11.3772843437      -14.9827046304      -34.0673215009  MEOH      1829            0.0000000000
     33882      2521  MEOH      DO1            11.3867320415      -14.9962708170      -34.0646438309  MEOH      1829            0.0000000000
     33883      2521  MEOH      HO1            11.3026709095      -14.2030075120      -34.6395148602  MEOH      1829            0.0000000000
     33884      2521  MEOH      HO2            11.3296349396      -14.8589626577      -33.1064274077  MEOH      1829            0.0000000000
     33885      2521  MEOH      H1A            10.2573925050      -16.7184622162      -33.7469409248  MEOH      1829            0.0000000000
     33886      2521  MEOH      H1B            10.3361799681      -16.1371296202      -35.4662238961  MEOH      1829            0.0000000000
     33887      2521  MEOH      H1C             9.3161522226      -15.2731525646      -34.2473314012  MEOH      1829            0.0000000000
     33888      2521  MEOH      LP1A           11.2888536550      -14.7661834497      -33.8069398741  MEOH      1829            0.0000000000
     33889      2521  MEOH      LP1B           11.6546652937      -15.0663693724      -34.2636885540  MEOH      1829            0.0000000000
     33890      2522  MEOH      C1            -16.5740048997       18.8832119859      -35.5666720303  MEOH      1830            0.0000000000
     33891      2522  MEOH      DC1           -16.5603978336       18.9008444531      -35.5662411862  MEOH      1830            0.0000000000
     33892      2522  MEOH      O1            -17.4353412742       19.4669260343      -36.5444903865  MEOH      1830            0.0000000000
     33893      2522  MEOH      DO1           -17.4186899077       19.4858906203      -36.5401562576  MEOH      1830            0.0000000000
     33894      2522  MEOH      HO1           -16.9665368435       19.4724906231      -37.3936614185  MEOH      1830            0.0000000000
     33895      2522  MEOH      HO2           -18.2426519209       18.9311317767      -36.4989488312  MEOH      1830            0.0000000000
     33896      2522  MEOH      H1A           -17.1380322578       18.7155279923      -34.6242940713  MEOH      1830            0.0000000000
     33897      2522  MEOH      H1B           -15.7136995005       19.5537626598      -35.3555857556  MEOH      1830            0.0000000000
     33898      2522  MEOH      H1C           -16.1986475474       17.9011691105      -35.9258650836  MEOH      1830            0.0000000000
     33899      2522  MEOH      LP1A          -17.6340414350       19.2194250558      -36.6920082218  MEOH      1830            0.0000000000
     33900      2522  MEOH      LP1B          -17.3891624053       19.8137637668      -36.5529224308  MEOH      1830            0.0000000000
     33901      2523  MEOH      C1            -28.5628172350       17.6754360796      -25.3237435441  MEOH      1831            0.0000000000
     33902      2523  MEOH      DC1           -28.5607711152       17.6737989021      -25.3399515380  MEOH      1831            0.0000000000
     33903      2523  MEOH      O1            -27.5997262460       18.6749230297      -25.6600636235  MEOH      1831            0.0000000000
     33904      2523  MEOH      DO1           -27.5977563696       18.6736417802      -25.6736702541  MEOH      1831            0.0000000000
     33905      2523  MEOH      HO1           -28.0960707497       19.5050387528      -25.7338878738  MEOH      1831            0.0000000000
     33906      2523  MEOH      HO2           -26.9189240882       18.6101047204      -24.9721631878  MEOH      1831            0.0000000000
     33907      2523  MEOH      H1A           -28.0606090158       16.7105158585      -25.0978301283  MEOH      1831            0.0000000000
     33908      2523  MEOH      H1B           -29.2893277575       17.5446780406      -26.1540481848  MEOH      1831            0.0000000000
     33909      2523  MEOH      H1C           -29.1043422270       17.9848848382      -24.4043344127  MEOH      1831            0.0000000000
     33910      2523  MEOH      LP1A          -27.4641915491       18.8134424587      -25.3686142905  MEOH      1831            0.0000000000
     33911      2523  MEOH      LP1B          -27.5655194596       18.6960164508      -26.0077487732  MEOH      1831            0.0000000000
     33912      2524  MEOH      C1             -8.0656679011       18.3480845515       12.0244173457  MEOH      1832            0.0000000000
     33913      2524  MEOH      DC1            -8.0630662061       18.3550019620       12.0367558008  MEOH      1832            0.0000000000
     33914      2524  MEOH      O1             -7.1915731199       18.1654510696       13.1348062730  MEOH      1832            0.0000000000
     33915      2524  MEOH      DO1            -7.1904743903       18.1814522955       13.1564440309  MEOH      1832            0.0000000000
     33916      2524  MEOH      HO1            -6.6156520922       17.4209624310       12.9003886183  MEOH      1832            0.0000000000
     33917      2524  MEOH      HO2            -6.8304211678       19.0399423283       13.3486620807  MEOH      1832            0.0000000000
     33918      2524  MEOH      H1A            -8.8683078874       19.0725615693       12.2798054892  MEOH      1832            0.0000000000
     33919      2524  MEOH      H1B            -8.5239946934       17.3727477881       11.7542771055  MEOH      1832            0.0000000000
     33920      2524  MEOH      H1C            -7.4897127186       18.7277697468       11.1535351594  MEOH      1832            0.0000000000
     33921      2524  MEOH      LP1A           -6.9055636510       18.3633892003       13.0958308948  MEOH      1832            0.0000000000
     33922      2524  MEOH      LP1B           -7.3357957624       17.9455694071       13.3657865403  MEOH      1832            0.0000000000
     33923      2525  MEOH      C1             -7.7004061346      -16.2535204461        8.2584476359  MEOH      1833            0.0000000000
     33924      2525  MEOH      DC1            -7.7063137090      -16.2677581234        8.2622248712  MEOH      1833            0.0000000000
     33925      2525  MEOH      O1             -6.6012083747      -17.0288345543        8.7385483601  MEOH      1833            0.0000000000
     33926      2525  MEOH      DO1            -6.6068593049      -17.0415647368        8.7425114297  MEOH      1833            0.0000000000
     33927      2525  MEOH      HO1            -6.3081546772      -17.5992121537        8.0107510500  MEOH      1833            0.0000000000
     33928      2525  MEOH      HO2            -5.9783036178      -16.3859014857        9.1120811352  MEOH      1833            0.0000000000
     33929      2525  MEOH      H1A            -8.0454136042      -15.5665952642        9.0605851819  MEOH      1833            0.0000000000
     33930      2525  MEOH      H1B            -8.5454081897      -16.9150993894        7.9710353376  MEOH      1833            0.0000000000
     33931      2525  MEOH      H1C            -7.3862753673      -15.6490946481        7.3807732568  MEOH      1833            0.0000000000
     33932      2525  MEOH      LP1A           -6.3009999417      -16.8572278226        8.6844556029  MEOH      1833            0.0000000000
     33933      2525  MEOH      LP1B           -6.7180201655      -17.3252881142        8.8833595902  MEOH      1833            0.0000000000
     33934      2526  MEOH      C1              5.7528743052       -4.9416149399      -18.0142850945  MEOH      1834            0.0000000000
     33935      2526  MEOH      DC1             5.7607583211       -4.9415484243      -18.0153522769  MEOH      1834            0.0000000000
     33936      2526  MEOH      O1              6.7426248620       -5.6796306981      -17.3081043404  MEOH      1834            0.0000000000
     33937      2526  MEOH      DO1             6.7525753807       -5.6740449342      -17.3084479628  MEOH      1834            0.0000000000
     33938      2526  MEOH      HO1             7.0598078264       -6.3863694700      -17.8918982042  MEOH      1834            0.0000000000
     33939      2526  MEOH      HO2             7.3485998209       -5.0226301545      -16.9312162461  MEOH      1834            0.0000000000
     33940      2526  MEOH      H1A             5.2772458502       -4.2297620319      -17.3062144695  MEOH      1834            0.0000000000
     33941      2526  MEOH      H1B             4.9834812073       -5.6338731379      -18.4181834105  MEOH      1834            0.0000000000
     33942      2526  MEOH      H1C             6.2069308816       -4.3614530749      -18.8458894694  MEOH      1834            0.0000000000
     33943      2526  MEOH      LP1A            7.0581246584       -5.5375167756      -17.3606734518  MEOH      1834            0.0000000000
     33944      2526  MEOH      LP1B            6.5923584022       -5.9391051377      -17.1275690080  MEOH      1834            0.0000000000
     33945      2527  MEOH      C1             -1.9861347289      -11.5391865196      -29.7569371812  MEOH      1835            0.0000000000
     33946      2527  MEOH      DC1            -1.9808005919      -11.5388101507      -29.7542187991  MEOH      1835            0.0000000000
     33947      2527  MEOH      O1             -2.7187952363      -12.4825681407      -28.9754265015  MEOH      1835            0.0000000000
     33948      2527  MEOH      DO1            -2.7148836892      -12.4822141212      -28.9783702740  MEOH      1835            0.0000000000
     33949      2527  MEOH      HO1            -3.6033468867      -12.5759072318      -29.3624099543  MEOH      1835            0.0000000000
     33950      2527  MEOH      HO2            -2.1442685288      -13.2548059624      -28.8551442952  MEOH      1835            0.0000000000
     33951      2527  MEOH      H1A            -1.0223279506      -11.3080654411      -29.2549605455  MEOH      1835            0.0000000000
     33952      2527  MEOH      H1B            -2.5724714164      -10.6018325089      -29.8660139792  MEOH      1835            0.0000000000
     33953      2527  MEOH      H1C            -1.7846937691      -11.9659451042      -30.7627302266  MEOH      1835            0.0000000000
     33954      2527  MEOH      LP1A           -2.6661558865      -12.8061396037      -29.0980258782  MEOH      1835            0.0000000000
     33955      2527  MEOH      LP1B           -2.8852404731      -12.3185649961      -28.7148522286  MEOH      1835            0.0000000000
     33956      2528  MEOH      C1             -8.5121719683       -3.2258943524       13.2381463214  MEOH      1836            0.0000000000
     33957      2528  MEOH      DC1            -8.4780636440       -3.2185485608       13.2595962108  MEOH      1836            0.0000000000
     33958      2528  MEOH      O1             -8.0896702388       -2.4265573701       14.3429051620  MEOH      1836            0.0000000000
     33959      2528  MEOH      DO1            -8.0549207499       -2.4169211448       14.3539379224  MEOH      1836            0.0000000000
     33960      2528  MEOH      HO1            -8.2359490405       -1.5145644513       14.0466427292  MEOH      1836            0.0000000000
     33961      2528  MEOH      HO2            -8.6190129868       -2.7410055333       15.0924507629  MEOH      1836            0.0000000000
     33962      2528  MEOH      H1A            -8.5767168015       -4.2948323517       13.5339951314  MEOH      1836            0.0000000000
     33963      2528  MEOH      H1B            -7.7950460761       -3.1248725198       12.3956227039  MEOH      1836            0.0000000000
     33964      2528  MEOH      H1C            -9.5165103136       -2.8949837502       12.8973771001  MEOH      1836            0.0000000000
     33965      2528  MEOH      LP1A           -8.3577465255       -2.3732075689       14.5615118939  MEOH      1836            0.0000000000
     33966      2528  MEOH      LP1B           -7.7480908756       -2.3553583383       14.3154417955  MEOH      1836            0.0000000000
     33967      2529  MEOH      C1             -8.5099593260      -31.3546407960       31.9478011561  MEOH      1837            0.0000000000
     33968      2529  MEOH      DC1            -8.4938357571      -31.3592625297       31.9435933201  MEOH      1837            0.0000000000
     33969      2529  MEOH      O1             -9.7016724629      -30.5972514908       32.1437041565  MEOH      1837            0.0000000000
     33970      2529  MEOH      DO1            -9.6880236801      -30.5982802663       32.1386209985  MEOH      1837            0.0000000000
     33971      2529  MEOH      HO1            -9.4737430034      -29.7520971387       32.5616303254  MEOH      1837            0.0000000000
     33972      2529  MEOH      HO2           -10.1715110485      -30.6285607193       31.2956643951  MEOH      1837            0.0000000000
     33973      2529  MEOH      H1A            -8.7751163299      -32.4077798901       31.7134705943  MEOH      1837            0.0000000000
     33974      2529  MEOH      H1B            -7.8959718212      -31.3446043867       32.8736735093  MEOH      1837            0.0000000000
     33975      2529  MEOH      H1C            -7.9057292774      -30.9245812836       31.1205914693  MEOH      1837            0.0000000000
     33976      2529  MEOH      LP1A           -9.7668515653      -30.4013877886       31.8610575666  MEOH      1837            0.0000000000
     33977      2529  MEOH      LP1B           -9.8427944400      -30.6743936996       32.4545637183  MEOH      1837            0.0000000000
     33978      2530  MEOH      C1            -19.9149957561       -1.0523238046       -7.5187802153  MEOH      1838            0.0000000000
     33979      2530  MEOH      DC1           -19.9195127850       -1.0657927253       -7.4955832516  MEOH      1838            0.0000000000
     33980      2530  MEOH      O1            -19.9975774077       -0.0464645562       -8.5307643681  MEOH      1838            0.0000000000
     33981      2530  MEOH      DO1           -20.0006800106       -0.0574334386       -8.5204370533  MEOH      1838            0.0000000000
     33982      2530  MEOH      HO1           -20.8899226553       -0.0544909004       -8.9109689675  MEOH      1838            0.0000000000
     33983      2530  MEOH      HO2           -19.6486505726        0.7654153843       -8.1307630858  MEOH      1838            0.0000000000
     33984      2530  MEOH      H1A           -18.8773363426       -1.1004044644       -7.1247342885  MEOH      1838            0.0000000000
     33985      2530  MEOH      H1B           -20.1819501694       -2.0399471732       -7.9519735012  MEOH      1838            0.0000000000
     33986      2530  MEOH      H1C           -20.5996093685       -0.8054868277       -6.6793180601  MEOH      1838            0.0000000000
     33987      2530  MEOH      LP1A          -20.0969775451        0.2578318155       -8.3892605490  MEOH      1838            0.0000000000
     33988      2530  MEOH      LP1B          -19.9010720733       -0.1793905286       -8.8398232723  MEOH      1838            0.0000000000
     33989      2531  MEOH      C1            -13.2775839993       21.0812924154        6.9535548405  MEOH      1839            0.0000000000
     33990      2531  MEOH      DC1           -13.2723511458       21.0936652967        6.9513663083  MEOH      1839            0.0000000000
     33991      2531  MEOH      O1            -13.3652826755       20.2287368285        8.0953700858  MEOH      1839            0.0000000000
     33992      2531  MEOH      DO1           -13.3638720289       20.2483608788        8.0921412564  MEOH      1839            0.0000000000
     33993      2531  MEOH      HO1           -14.2881017332       19.9492975083        8.2012882291  MEOH      1839            0.0000000000
     33994      2531  MEOH      HO2           -12.6950099266       19.5421605641        7.9530764610  MEOH      1839            0.0000000000
     33995      2531  MEOH      H1A           -12.2172030961       21.3732029281        6.7963874346  MEOH      1839            0.0000000000
     33996      2531  MEOH      H1B           -13.8880285596       21.9956208410        7.1138107890  MEOH      1839            0.0000000000
     33997      2531  MEOH      H1C           -13.6386371300       20.5456401897        6.0496531137  MEOH      1839            0.0000000000
     33998      2531  MEOH      LP1A          -13.3097024685       19.8962886399        8.0010883673  MEOH      1839            0.0000000000
     33999      2531  MEOH      LP1B          -13.4242870811       20.4194068477        8.3828825619  MEOH      1839            0.0000000000
     34000      2532  MEOH      C1            -34.4579214939      -27.0090358776        9.7652374184  MEOH      1840            0.0000000000
     34001      2532  MEOH      DC1           -34.4513700866      -27.0043112010        9.7592363428  MEOH      1840            0.0000000000
     34002      2532  MEOH      O1            -33.6124549753      -27.3750232437        8.6750677378  MEOH      1840            0.0000000000
     34003      2532  MEOH      DO1           -33.6083964587      -27.3754934958        8.6698821031  MEOH      1840            0.0000000000
     34004      2532  MEOH      HO1           -32.7629132230      -26.9206263062        8.7877719274  MEOH      1840            0.0000000000
     34005      2532  MEOH      HO2           -33.6543167017      -28.3423502810        8.6165356908  MEOH      1840            0.0000000000
     34006      2532  MEOH      H1A           -35.4653153324      -27.4579736888        9.6313214115  MEOH      1840            0.0000000000
     34007      2532  MEOH      H1B           -34.5685520432      -25.9046111856        9.8134865746  MEOH      1840            0.0000000000
     34008      2532  MEOH      H1C           -34.0258646048      -27.3863207334       10.7167120552  MEOH      1840            0.0000000000
     34009      2532  MEOH      LP1A          -33.4322781144      -27.6641986104        8.7551546038  MEOH      1840            0.0000000000
     34010      2532  MEOH      LP1B          -33.6591739068      -27.1538534505        8.4078575882  MEOH      1840            0.0000000000
     34011      2533  MEOH      C1             25.6853362536      -35.1844650481       28.8830626618  MEOH      1841            0.0000000000
     34012      2533  MEOH      DC1            25.6877075008      -35.1796135247       28.8851125612  MEOH      1841            0.0000000000
     34013      2533  MEOH      O1             24.4688876377      -34.8240775806       28.2361374589  MEOH      1841            0.0000000000
     34014      2533  MEOH      DO1            24.4678052234      -34.8223182090       28.2397062315  MEOH      1841            0.0000000000
     34015      2533  MEOH      HO1            23.7740844309      -34.7690143427       28.9107607203  MEOH      1841            0.0000000000
     34016      2533  MEOH      HO2            24.6754422218      -34.0576319153       27.6786464312  MEOH      1841            0.0000000000
     34017      2533  MEOH      H1A            26.4802342128      -35.3310957822       28.1208568745  MEOH      1841            0.0000000000
     34018      2533  MEOH      H1B            25.5467163358      -36.1280021844       29.4530128288  MEOH      1841            0.0000000000
     34019      2533  MEOH      H1C            25.9887199214      -34.3707874880       29.5760332086  MEOH      1841            0.0000000000
     34020      2533  MEOH      LP1A           24.4391624760      -34.4756035151       28.2226378134  MEOH      1841            0.0000000000
     34021      2533  MEOH      LP1B           24.2995616364      -35.1117032337       28.1307800248  MEOH      1841            0.0000000000
     34022      2534  MEOH      C1             15.5251677408      -12.2498621181        2.4117106951  MEOH      1842            0.0000000000
     34023      2534  MEOH      DC1            15.5262068929      -12.2469920805        2.4086468698  MEOH      1842            0.0000000000
     34024      2534  MEOH      O1             16.1455529891      -11.4244342561        3.3907765043  MEOH      1842            0.0000000000
     34025      2534  MEOH      DO1            16.1507807172      -11.4150906003        3.3872893637  MEOH      1842            0.0000000000
     34026      2534  MEOH      HO1            16.3472424378      -10.5769413519        2.9641887124  MEOH      1842            0.0000000000
     34027      2534  MEOH      HO2            15.5607995127      -11.4549892350        4.1641003466  MEOH      1842            0.0000000000
     34028      2534  MEOH      H1A            15.2512146971      -13.2127198909        2.8935567693  MEOH      1842            0.0000000000
     34029      2534  MEOH      H1B            16.2283111872      -12.4387324316        1.5725216221  MEOH      1842            0.0000000000
     34030      2534  MEOH      H1C            14.5980290081      -11.7711152974        2.0302185555  MEOH      1842            0.0000000000
     34031      2534  MEOH      LP1A           15.9025871216      -11.2439939585        3.5665857369  MEOH      1842            0.0000000000
     34032      2534  MEOH      LP1B           16.4919465984      -11.4744361695        3.3874185123  MEOH      1842            0.0000000000
     34033      2535  MEOH      C1             32.4537174330      -12.0777077654       14.0066333215  MEOH      1843            0.0000000000
     34034      2535  MEOH      DC1            32.4531835710      -12.0843028004       14.0166023045  MEOH      1843            0.0000000000
     34035      2535  MEOH      O1             32.6510155726      -13.4728941090       13.7751800201  MEOH      1843            0.0000000000
     34036      2535  MEOH      DO1            32.6559997479      -13.4790858909       13.7824505632  MEOH      1843            0.0000000000
     34037      2535  MEOH      HO1            32.2006409981      -13.9445113159       14.4932607637  MEOH      1843            0.0000000000
     34038      2535  MEOH      HO2            32.3600331383      -13.6218273972       12.8619176818  MEOH      1843            0.0000000000
     34039      2535  MEOH      H1A            32.9675658750      -11.4847250847       13.2200887775  MEOH      1843            0.0000000000
     34040      2535  MEOH      H1B            32.8787955505      -11.7899587885       14.9919404413  MEOH      1843            0.0000000000
     34041      2535  MEOH      H1C            31.3677448559      -11.8440654391       13.9867379226  MEOH      1843            0.0000000000
     34042      2535  MEOH      LP1A           32.3948909390      -13.5979321157       13.5720404894  MEOH      1843            0.0000000000
     34043      2535  MEOH      LP1B           32.9462731467      -13.5793534399       13.9300650607  MEOH      1843            0.0000000000
     34044      2536  MEOH      C1             -5.2075688987       36.8684461923       25.0138155809  MEOH      1844            0.0000000000
     34045      2536  MEOH      DC1            -5.2158615321       36.8786737161       25.0303103662  MEOH      1844            0.0000000000
     34046      2536  MEOH      O1             -5.1778179894       36.6388734088       23.6115147193  MEOH      1844            0.0000000000
     34047      2536  MEOH      DO1            -5.1933318335       36.6351249263       23.6277894326  MEOH      1844            0.0000000000
     34048      2536  MEOH      HO1            -4.2768328789       36.4211778234       23.3256223223  MEOH      1844            0.0000000000
     34049      2536  MEOH      HO2            -5.9649700730       36.1355995037       23.3507332503  MEOH      1844            0.0000000000
     34050      2536  MEOH      H1A            -6.1023423076       37.4859800522       25.2426244076  MEOH      1844            0.0000000000
     34051      2536  MEOH      H1B            -4.2918255589       37.4065047420       25.3397421566  MEOH      1844            0.0000000000
     34052      2536  MEOH      H1C            -5.2703012837       35.8985526283       25.5520461301  MEOH      1844            0.0000000000
     34053      2536  MEOH      LP1A           -5.2418871366       36.3014629078       23.5440662341  MEOH      1844            0.0000000000
     34054      2536  MEOH      LP1B           -5.1200158636       36.9396740881       23.4421693161  MEOH      1844            0.0000000000
     34055      2537  MEOH      C1             13.9766307619      -27.4695417461       -1.3516192349  MEOH      1845            0.0000000000
     34056      2537  MEOH      DC1            13.9819305963      -27.4671286681       -1.3757797681  MEOH      1845            0.0000000000
     34057      2537  MEOH      O1             15.1394960487      -28.0527494285       -0.7691965200  MEOH      1845            0.0000000000
     34058      2537  MEOH      DO1            15.1394539635      -28.0518287044       -0.7875350172  MEOH      1845            0.0000000000
     34059      2537  MEOH      HO1            15.4739541924      -28.7856822874       -1.3094253367  MEOH      1845            0.0000000000
     34060      2537  MEOH      HO2            15.7078663516      -27.3290563988       -0.4624008241  MEOH      1845            0.0000000000
     34061      2537  MEOH      H1A            13.4876214768      -26.8253669777       -0.5898910757  MEOH      1845            0.0000000000
     34062      2537  MEOH      H1B            13.2584947377      -28.2606717769       -1.6561104917  MEOH      1845            0.0000000000
     34063      2537  MEOH      H1C            14.2641332833      -26.8404909123       -2.2210778876  MEOH      1845            0.0000000000
     34064      2537  MEOH      LP1A           15.4262374534      -27.8879194315       -0.8836973450  MEOH      1845            0.0000000000
     34065      2537  MEOH      LP1B           15.0474801404      -28.3080609916       -0.5481782439  MEOH      1845            0.0000000000
     34066      2538  MEOH      C1             -0.2588972907        1.7365253389       -8.2202434820  MEOH      1846            0.0000000000
     34067      2538  MEOH      DC1            -0.2351806966        1.7334109955       -8.2306923871  MEOH      1846            0.0000000000
     34068      2538  MEOH      O1             -1.4108631469        1.5336720644       -7.4027984286  MEOH      1846            0.0000000000
     34069      2538  MEOH      DO1            -1.3921810025        1.5137197541       -7.4061844774  MEOH      1846            0.0000000000
     34070      2538  MEOH      HO1            -2.1157626350        2.1019807349       -7.7507092890  MEOH      1846            0.0000000000
     34071      2538  MEOH      HO2            -1.5244932670        0.5732668392       -7.3278984954  MEOH      1846            0.0000000000
     34072      2538  MEOH      H1A             0.6331125805        1.2813673599       -7.7391295599  MEOH      1846            0.0000000000
     34073      2538  MEOH      H1B            -0.0795198701        2.8272637495       -8.3317533969  MEOH      1846            0.0000000000
     34074      2538  MEOH      H1C            -0.4194477503        1.2946556423       -9.2268693913  MEOH      1846            0.0000000000
     34075      2538  MEOH      LP1A           -1.6026225034        1.2697376027       -7.5295538983  MEOH      1846            0.0000000000
     34076      2538  MEOH      LP1B           -1.4065238895        1.7560184253       -7.1325332503  MEOH      1846            0.0000000000
     34077      2539  MEOH      C1             26.1819617892      -33.0722412782       14.0112323194  MEOH      1847            0.0000000000
     34078      2539  MEOH      DC1            26.1861156406      -33.0702852321       14.0108329247  MEOH      1847            0.0000000000
     34079      2539  MEOH      O1             25.9696832184      -34.2759565768       14.7439458842  MEOH      1847            0.0000000000
     34080      2539  MEOH      DO1            25.9874150634      -34.2768068501       14.7430784683  MEOH      1847            0.0000000000
     34081      2539  MEOH      HO1            25.2260755845      -34.7636563256       14.3565228057  MEOH      1847            0.0000000000
     34082      2539  MEOH      HO2            26.8209474550      -34.6696222458       14.9914868732  MEOH      1847            0.0000000000
     34083      2539  MEOH      H1A            26.7301696773      -32.3478447521       14.6507937197  MEOH      1847            0.0000000000
     34084      2539  MEOH      H1B            25.2068847934      -32.6163288960       13.7361146139  MEOH      1847            0.0000000000
     34085      2539  MEOH      H1C            26.7761878744      -33.2866335578       13.0973109270  MEOH      1847            0.0000000000
     34086      2539  MEOH      LP1A           26.1640653012      -34.5339619686       14.6092283143  MEOH      1847            0.0000000000
     34087      2539  MEOH      LP1B           25.7483684219      -34.2174834434       15.0087111643  MEOH      1847            0.0000000000
     34088      2540  MEOH      C1             29.2697356922       22.2358417903       12.6897718186  MEOH      1848            0.0000000000
     34089      2540  MEOH      DC1            29.2829322974       22.2567306835       12.6881171685  MEOH      1848            0.0000000000
     34090      2540  MEOH      O1             28.9006419866       20.9164979223       13.0881474353  MEOH      1848            0.0000000000
     34091      2540  MEOH      DO1            28.9130670594       20.9287471159       13.0884526434  MEOH      1848            0.0000000000
     34092      2540  MEOH      HO1            28.6765277844       20.4080014487       12.2930976497  MEOH      1848            0.0000000000
     34093      2540  MEOH      HO2            29.5945398993       20.6107567025       13.6930672591  MEOH      1848            0.0000000000
     34094      2540  MEOH      H1A            29.3816774343       22.8603721391       13.6017761446  MEOH      1848            0.0000000000
     34095      2540  MEOH      H1B            28.4766701033       22.6765818733       12.0485884199  MEOH      1848            0.0000000000
     34096      2540  MEOH      H1C            30.2354746501       22.2072774191       12.1412708212  MEOH      1848            0.0000000000
     34097      2540  MEOH      LP1A           29.1839788118       20.7113654568       13.1000182011  MEOH      1848            0.0000000000
     34098      2540  MEOH      LP1B           28.5571769233       20.9030493432       13.1541086815  MEOH      1848            0.0000000000
     34099      2541  MEOH      C1             11.6912610268      -31.3962487467      -13.6520690945  MEOH      1849            0.0000000000
     34100      2541  MEOH      DC1            11.6974439614      -31.3916306485      -13.6682972588  MEOH      1849            0.0000000000
     34101      2541  MEOH      O1             10.4426733547      -30.8629700788      -14.1057408991  MEOH      1849            0.0000000000
     34102      2541  MEOH      DO1            10.4453683482      -30.8721742181      -14.1206592988  MEOH      1849            0.0000000000
     34103      2541  MEOH      HO1             9.8976838210      -30.7263385608      -13.3150334712  MEOH      1849            0.0000000000
     34104      2541  MEOH      HO2            10.6633015809      -30.1077504874      -14.6730737424  MEOH      1849            0.0000000000
     34105      2541  MEOH      H1A            12.3488201653      -31.6385967777      -14.5141621361  MEOH      1849            0.0000000000
     34106      2541  MEOH      H1B            11.5277780983      -32.3375793971      -13.0850673849  MEOH      1849            0.0000000000
     34107      2541  MEOH      H1C            12.2045308289      -30.6570665169      -13.0005441574  MEOH      1849            0.0000000000
     34108      2541  MEOH      LP1A           10.4596079626      -30.5136488475      -14.1194484300  MEOH      1849            0.0000000000
     34109      2541  MEOH      LP1B           10.2206746734      -31.1235206129      -14.1787477803  MEOH      1849            0.0000000000
     34110      2542  MEOH      C1              5.8203858654       -8.0692669195      -34.4234653475  MEOH      1850            0.0000000000
     34111      2542  MEOH      DC1             5.8154119038       -8.0635179033      -34.4159681330  MEOH      1850            0.0000000000
     34112      2542  MEOH      O1              6.0411765464       -9.0459569609      -35.4353473397  MEOH      1850            0.0000000000
     34113      2542  MEOH      DO1             6.0420214246       -9.0406018709      -35.4286233285  MEOH      1850            0.0000000000
     34114      2542  MEOH      HO1             6.1229115286       -9.9108150994      -35.0037922529  MEOH      1850            0.0000000000
     34115      2542  MEOH      HO2             5.3725808564       -8.8810887615      -36.1185005298  MEOH      1850            0.0000000000
     34116      2542  MEOH      H1A             5.9119713680       -7.0555457163      -34.8687769440  MEOH      1850            0.0000000000
     34117      2542  MEOH      H1B             6.5837396157       -8.1896886665      -33.6252732301  MEOH      1850            0.0000000000
     34118      2542  MEOH      H1C             4.8034551958       -8.1890507993      -33.9923912981  MEOH      1850            0.0000000000
     34119      2542  MEOH      LP1A            5.7349036342       -9.1685435210      -35.5522637138  MEOH      1850            0.0000000000
     34120      2542  MEOH      LP1B            6.3841420961       -9.0794220028      -35.4966231318  MEOH      1850            0.0000000000
     34121      2543  MEOH      C1             19.1764535465      -23.4177907017      -15.6337102258  MEOH      1851            0.0000000000
     34122      2543  MEOH      DC1            19.1469398179      -23.4151556369      -15.6186603217  MEOH      1851            0.0000000000
     34123      2543  MEOH      O1             20.3145992140      -23.4598586851      -16.4832646108  MEOH      1851            0.0000000000
     34124      2543  MEOH      DO1            20.2884278602      -23.4706163331      -16.4653220614  MEOH      1851            0.0000000000
     34125      2543  MEOH      HO1            20.0611753337      -23.6087511074      -17.4076602968  MEOH      1851            0.0000000000
     34126      2543  MEOH      HO2            20.8336268043      -22.6709466173      -16.2616159927  MEOH      1851            0.0000000000
     34127      2543  MEOH      H1A            19.5220108213      -23.2516491404      -14.5909695329  MEOH      1851            0.0000000000
     34128      2543  MEOH      H1B            18.6257913892      -24.3816194524      -15.6798223475  MEOH      1851            0.0000000000
     34129      2543  MEOH      H1C            18.5306704843      -22.5653978893      -15.9348941102  MEOH      1851            0.0000000000
     34130      2543  MEOH      LP1A           20.3914487870      -23.1377120112      -16.5964708988  MEOH      1851            0.0000000000
     34131      2543  MEOH      LP1B           20.4363519311      -23.7873342161      -16.5041464798  MEOH      1851            0.0000000000
     34132      2544  MEOH      C1             20.0390229180       25.0073547607       33.2978754893  MEOH      1852            0.0000000000
     34133      2544  MEOH      DC1            20.0275500698       25.0124318113       33.3194346108  MEOH      1852            0.0000000000
     34134      2544  MEOH      O1             20.7304778280       24.4921691009       34.4357613617  MEOH      1852            0.0000000000
     34135      2544  MEOH      DO1            20.7244887437       24.5012485080       34.4476165822  MEOH      1852            0.0000000000
     34136      2544  MEOH      HO1            20.9055916028       23.5590076602       34.2371539776  MEOH      1852            0.0000000000
     34137      2544  MEOH      HO2            21.4821648693       25.0899751206       34.5717560482  MEOH      1852            0.0000000000
     34138      2544  MEOH      H1A            19.7814557870       26.0760774506       33.4585365765  MEOH      1852            0.0000000000
     34139      2544  MEOH      H1B            19.1134579620       24.4178997979       33.1241131206  MEOH      1852            0.0000000000
     34140      2544  MEOH      H1C            20.6787352810       24.9250863484       32.3932645222  MEOH      1852            0.0000000000
     34141      2544  MEOH      LP1A           21.0753737041       24.5371668170       34.3967480284  MEOH      1852            0.0000000000
     34142      2544  MEOH      LP1B           20.5009484786       24.3710849328       34.6706121698  MEOH      1852            0.0000000000
     34143      2545  MEOH      C1            -23.8310682621       15.2147921048       10.4054990984  MEOH      1853            0.0000000000
     34144      2545  MEOH      DC1           -23.8496536891       15.2490167734       10.3931115566  MEOH      1853            0.0000000000
     34145      2545  MEOH      O1            -24.9123948491       16.0472521367        9.9993866649  MEOH      1853            0.0000000000
     34146      2545  MEOH      DO1           -24.9314290469       16.0765399993        9.9809177983  MEOH      1853            0.0000000000
     34147      2545  MEOH      HO1           -25.6006262771       15.8483933730       10.6533688469  MEOH      1853            0.0000000000
     34148      2545  MEOH      HO2           -24.5406560095       16.9369003901        9.8933856254  MEOH      1853            0.0000000000
     34149      2545  MEOH      H1A           -23.0295218160       15.2332138521        9.6364055185  MEOH      1853            0.0000000000
     34150      2545  MEOH      H1B           -24.1708851996       14.1647494597       10.5329976966  MEOH      1853            0.0000000000
     34151      2545  MEOH      H1C           -23.4254303548       15.5433703792       11.3862208773  MEOH      1853            0.0000000000
     34152      2545  MEOH      LP1A          -24.8867923340       16.3604416694       10.1535191657  MEOH      1853            0.0000000000
     34153      2545  MEOH      LP1B          -25.1134913566       15.8780213596        9.7682565311  MEOH      1853            0.0000000000
     34154      2546  MEOH      C1            -10.9874838258        0.1291189991      -32.9559030800  MEOH      1854            0.0000000000
     34155      2546  MEOH      DC1           -10.9789860581        0.1142431841      -32.9525868156  MEOH      1854            0.0000000000
     34156      2546  MEOH      O1            -10.7537106487        1.3758625276      -32.2995062953  MEOH      1854            0.0000000000
     34157      2546  MEOH      DO1           -10.7383436725        1.3632607483      -32.2802337311  MEOH      1854            0.0000000000
     34158      2546  MEOH      HO1           -11.6042942739        1.6707150393      -31.9383006849  MEOH      1854            0.0000000000
     34159      2546  MEOH      HO2            -9.9385964449        1.2893552372      -31.7808490636  MEOH      1854            0.0000000000
     34160      2546  MEOH      H1A           -10.1824985232       -0.0568327824      -33.6986961860  MEOH      1854            0.0000000000
     34161      2546  MEOH      H1B           -11.9623497419        0.1663660543      -33.4874763133  MEOH      1854            0.0000000000
     34162      2546  MEOH      H1C           -11.0124102020       -0.6984042445      -32.2150218755  MEOH      1854            0.0000000000
     34163      2546  MEOH      LP1A          -10.6648153646        1.3204990133      -31.9655414622  MEOH      1854            0.0000000000
     34164      2546  MEOH      LP1B          -10.7923146031        1.6396364971      -32.5262948041  MEOH      1854            0.0000000000
     34165      2547  MEOH      C1             17.7632483479       21.1722280577       -7.0018261243  MEOH      1855            0.0000000000
     34166      2547  MEOH      DC1            17.7628449028       21.1820152220       -7.0014303603  MEOH      1855            0.0000000000
     34167      2547  MEOH      O1             16.9910869812       20.2659694993       -7.7930755790  MEOH      1855            0.0000000000
     34168      2547  MEOH      DO1            17.0000255055       20.2608438056       -7.7920493232  MEOH      1855            0.0000000000
     34169      2547  MEOH      HO1            16.9274835341       19.4379025178       -7.2919172442  MEOH      1855            0.0000000000
     34170      2547  MEOH      HO2            16.1803426901       20.7455899154       -8.0245014872  MEOH      1855            0.0000000000
     34171      2547  MEOH      H1A            17.8870152293       22.1398931099       -7.5334529730  MEOH      1855            0.0000000000
     34172      2547  MEOH      H1B            18.7656469272       20.7370065146       -6.8015755397  MEOH      1855            0.0000000000
     34173      2547  MEOH      H1C            17.2437878744       21.3547206954       -6.0368503451  MEOH      1855            0.0000000000
     34174      2547  MEOH      LP1A           16.6509238209       20.3024803797       -7.7192109733  MEOH      1855            0.0000000000
     34175      2547  MEOH      LP1B           17.2008355376       20.0857145452       -8.0075836082  MEOH      1855            0.0000000000
     34176      2548  MEOH      C1              3.5664943201       -0.3305096525      -16.4787625396  MEOH      1856            0.0000000000
     34177      2548  MEOH      DC1             3.5714032685       -0.3411749761      -16.4982868604  MEOH      1856            0.0000000000
     34178      2548  MEOH      O1              4.5497858590       -1.0753208435      -17.1979959164  MEOH      1856            0.0000000000
     34179      2548  MEOH      DO1             4.5543931530       -1.0819191232      -17.2105619093  MEOH      1856            0.0000000000
     34180      2548  MEOH      HO1             5.1859138300       -1.3844517108      -16.5341591057  MEOH      1856            0.0000000000
     34181      2548  MEOH      HO2             4.0637984241       -1.7112079956      -17.7460504244  MEOH      1856            0.0000000000
     34182      2548  MEOH      H1A             2.8499570347        0.1259052188      -17.1947100125  MEOH      1856            0.0000000000
     34183      2548  MEOH      H1B             4.0456898969        0.4782846347      -15.8866946360  MEOH      1856            0.0000000000
     34184      2548  MEOH      H1C             3.0117751361       -0.9990793291      -15.7862149131  MEOH      1856            0.0000000000
     34185      2548  MEOH      LP1A            4.4525269221       -1.4107287325      -17.2212821180  MEOH      1856            0.0000000000
     34186      2548  MEOH      LP1B            4.8063301645       -0.8626912826      -17.3051112242  MEOH      1856            0.0000000000
     34187      2549  MEOH      C1             23.1339574902      -30.3348462431      -10.3533759918  MEOH      1857            0.0000000000
     34188      2549  MEOH      DC1            23.1253520468      -30.3265589470      -10.3436772431  MEOH      1857            0.0000000000
     34189      2549  MEOH      O1             22.8664911690      -29.1801040817       -9.5504745694  MEOH      1857            0.0000000000
     34190      2549  MEOH      DO1            22.8568035182      -29.1718487845       -9.5421700307  MEOH      1857            0.0000000000
     34191      2549  MEOH      HO1            23.6154262149      -29.0967175836       -8.9397021166  MEOH      1857            0.0000000000
     34192      2549  MEOH      HO2            22.6759383466      -28.4634078644      -10.1757234439  MEOH      1857            0.0000000000
     34193      2549  MEOH      H1A            22.3256056529      -30.4780172674      -11.1019682490  MEOH      1857            0.0000000000
     34194      2549  MEOH      H1B            23.1945110181      -31.2459386402       -9.7204740129  MEOH      1857            0.0000000000
     34195      2549  MEOH      H1C            24.1007865378      -30.2135142807      -10.8870811048  MEOH      1857            0.0000000000
     34196      2549  MEOH      LP1A           22.9965724488      -28.8942041530       -9.7048769379  MEOH      1857            0.0000000000
     34197      2549  MEOH      LP1B           22.6818323843      -29.2712422705       -9.2674640329  MEOH      1857            0.0000000000
     34198      2550  MEOH      C1             21.9034752977        3.2671971578       -8.9834382376  MEOH      1858            0.0000000000
     34199      2550  MEOH      DC1            21.8808216347        3.2857582811       -8.9732821578  MEOH      1858            0.0000000000
     34200      2550  MEOH      O1             20.7101989361        4.0264250143       -8.8122515497  MEOH      1858            0.0000000000
     34201      2550  MEOH      DO1            20.6885845075        4.0338559369       -8.8121377749  MEOH      1858            0.0000000000
     34202      2550  MEOH      HO1            20.4368789899        3.8774659268       -7.8935527972  MEOH      1858            0.0000000000
     34203      2550  MEOH      HO2            20.9259619741        4.9193750738       -9.1236781103  MEOH      1858            0.0000000000
     34204      2550  MEOH      H1A            22.2981822783        3.3969486721      -10.0138226047  MEOH      1858            0.0000000000
     34205      2550  MEOH      H1B            21.6988840878        2.1852595801       -8.8355378783  MEOH      1858            0.0000000000
     34206      2550  MEOH      H1C            22.6851859661        3.5972960587       -8.2663021648  MEOH      1858            0.0000000000
     34207      2550  MEOH      LP1A           20.7888528450        4.3511998116       -8.7081607545  MEOH      1858            0.0000000000
     34208      2550  MEOH      LP1B           20.4316971539        3.8327704955       -8.8984761671  MEOH      1858            0.0000000000
     34209      2551  MEOH      C1             -7.9014232520      -36.9575651400        0.7576829420  MEOH      1859            0.0000000000
     34210      2551  MEOH      DC1            -7.9086782273      -36.9531820812        0.7548791186  MEOH      1859            0.0000000000
     34211      2551  MEOH      O1             -9.2805322572      -37.1802514497        1.0751779125  MEOH      1859            0.0000000000
     34212      2551  MEOH      DO1            -9.2855064657      -37.1739519632        1.0773022550  MEOH      1859            0.0000000000
     34213      2551  MEOH      HO1            -9.4283758309      -36.8468323692        1.9739960227  MEOH      1859            0.0000000000
     34214      2551  MEOH      HO2            -9.7908690280      -36.8290165974        0.3287929857  MEOH      1859            0.0000000000
     34215      2551  MEOH      H1A            -7.6608675006      -37.4510773700       -0.2081843425  MEOH      1859            0.0000000000
     34216      2551  MEOH      H1B            -7.2466446214      -37.3647987162        1.5575246524  MEOH      1859            0.0000000000
     34217      2551  MEOH      H1C            -7.6731391531      -35.8729130138        0.6819390620  MEOH      1859            0.0000000000
     34218      2551  MEOH      LP1A           -9.4724609808      -36.9054831629        0.9743525503  MEOH      1859            0.0000000000
     34219      2551  MEOH      LP1B           -9.3207037404      -37.4969279725        1.2187126882  MEOH      1859            0.0000000000
     34220      2552  MEOH      C1             23.7602466536       -3.3598199378      -13.4696389148  MEOH      1860            0.0000000000
     34221      2552  MEOH      DC1            23.7680536610       -3.3868890150      -13.4751092162  MEOH      1860            0.0000000000
     34222      2552  MEOH      O1             24.4062635477       -4.6035014423      -13.7453024178  MEOH      1860            0.0000000000
     34223      2552  MEOH      DO1            24.4006878756       -4.6368697328      -13.7578772083  MEOH      1860            0.0000000000
     34224      2552  MEOH      HO1            24.6372574697       -4.9796958294      -12.8815781603  MEOH      1860            0.0000000000
     34225      2552  MEOH      HO2            23.8805210545       -5.0558793090      -14.4234241594  MEOH      1860            0.0000000000
     34226      2552  MEOH      H1A            23.7161567165       -2.7178159299      -14.3752922322  MEOH      1860            0.0000000000
     34227      2552  MEOH      H1B            24.3464971078       -2.8089634371      -12.7033566415  MEOH      1860            0.0000000000
     34228      2552  MEOH      H1C            22.7233918898       -3.5366943838      -13.1119118823  MEOH      1860            0.0000000000
     34229      2552  MEOH      LP1A           24.1690595606       -4.8602445280      -13.7631141124  MEOH      1860            0.0000000000
     34230      2552  MEOH      LP1B           24.7503876432       -4.5534388452      -13.7849552009  MEOH      1860            0.0000000000
     34231      2553  MEOH      C1              1.3296895060      -34.9931456951       33.8743312776  MEOH      1861            0.0000000000
     34232      2553  MEOH      DC1             1.3338892157      -34.9956336562       33.8756778179  MEOH      1861            0.0000000000
     34233      2553  MEOH      O1              1.1114466847      -34.8321495580       32.4727914518  MEOH      1861            0.0000000000
     34234      2553  MEOH      DO1             1.1058335337      -34.8272570617       32.4779055662  MEOH      1861            0.0000000000
     34235      2553  MEOH      HO1             1.9692507896      -34.9042270659       32.0257154510  MEOH      1861            0.0000000000
     34236      2553  MEOH      HO2             0.3903047510      -35.4417142790       32.2507888327  MEOH      1861            0.0000000000
     34237      2553  MEOH      H1A             0.3737061032      -34.8237685177       34.4144498825  MEOH      1861            0.0000000000
     34238      2553  MEOH      H1B             2.0801172239      -34.2527082727       34.2249473985  MEOH      1861            0.0000000000
     34239      2553  MEOH      H1C             1.6825588161      -36.0210088289       34.1052027317  MEOH      1861            0.0000000000
     34240      2553  MEOH      LP1A            1.0443271979      -35.1425480743       32.3256597571  MEOH      1861            0.0000000000
     34241      2553  MEOH      LP1B            1.1307200885      -34.4934327283       32.3867714241  MEOH      1861            0.0000000000
     34242      2554  MEOH      C1              1.2536908470      -10.0612941827       -5.7089791360  MEOH      1862            0.0000000000
     34243      2554  MEOH      DC1             1.2588485953      -10.0699376558       -5.7036107587  MEOH      1862            0.0000000000
     34244      2554  MEOH      O1              1.7487609513      -11.3393179383       -5.2981665239  MEOH      1862            0.0000000000
     34245      2554  MEOH      DO1             1.7474097534      -11.3422820117       -5.2853753181  MEOH      1862            0.0000000000
     34246      2554  MEOH      HO1             2.1040273030      -11.7733316410       -6.0895690291  MEOH      1862            0.0000000000
     34247      2554  MEOH      HO2             2.3242675561      -11.1703474005       -4.5358404086  MEOH      1862            0.0000000000
     34248      2554  MEOH      H1A             0.7577998806       -9.5570028396       -4.8521807985  MEOH      1862            0.0000000000
     34249      2554  MEOH      H1B             0.5051050319      -10.1817645170       -6.5210303511  MEOH      1862            0.0000000000
     34250      2554  MEOH      H1C             2.0877125987       -9.4228938333       -6.0711582531  MEOH      1862            0.0000000000
     34251      2554  MEOH      LP1A            2.0833389424      -11.3118988053       -5.1991424911  MEOH      1862            0.0000000000
     34252      2554  MEOH      LP1B            1.4938390797      -11.5783477301       -5.3176497999  MEOH      1862            0.0000000000
     34253      2555  MEOH      C1            -11.7749165537        8.7214038746       15.6642936373  MEOH      1863            0.0000000000
     34254      2555  MEOH      DC1           -11.7631731719        8.7213602443       15.6645036339  MEOH      1863            0.0000000000
     34255      2555  MEOH      O1            -12.1912210089       10.0696137905       15.4203545606  MEOH      1863            0.0000000000
     34256      2555  MEOH      DO1           -12.1854766904       10.0707739440       15.4296486011  MEOH      1863            0.0000000000
     34257      2555  MEOH      HO1           -13.1516375148       10.0584628391       15.2847972224  MEOH      1863            0.0000000000
     34258      2555  MEOH      HO2           -11.7976197948       10.6048219877       16.1271291144  MEOH      1863            0.0000000000
     34259      2555  MEOH      H1A           -10.6653600328        8.6670646690       15.6801863467  MEOH      1863            0.0000000000
     34260      2555  MEOH      H1B           -12.1667258169        8.0393724983       14.8796665265  MEOH      1863            0.0000000000
     34261      2555  MEOH      H1C           -12.1761591091        8.3531686196       16.6326573138  MEOH      1863            0.0000000000
     34262      2555  MEOH      LP1A          -12.2666350884       10.2282452534       15.7230900484  MEOH      1863            0.0000000000
     34263      2555  MEOH      LP1B          -12.1745448280       10.1399432215       15.0778991969  MEOH      1863            0.0000000000
     34264      2556  MEOH      C1              6.3215575855       -9.4937187527        0.4776308228  MEOH      1864            0.0000000000
     34265      2556  MEOH      DC1             6.3328790064       -9.4949773580        0.4750422170  MEOH      1864            0.0000000000
     34266      2556  MEOH      O1              5.8829889985      -10.8464112370        0.6200544896  MEOH      1864            0.0000000000
     34267      2556  MEOH      DO1             5.8900569621      -10.8468017762        0.6199602118  MEOH      1864            0.0000000000
     34268      2556  MEOH      HO1             4.9213191077      -10.8490190266        0.4932309092  MEOH      1864            0.0000000000
     34269      2556  MEOH      HO2             6.4528969611      -11.3742273036        0.0390939793  MEOH      1864            0.0000000000
     34270      2556  MEOH      H1A             7.3966197068       -9.4261029865        0.7496428552  MEOH      1864            0.0000000000
     34271      2556  MEOH      H1B             5.7363149208       -8.8326981400        1.1520667157  MEOH      1864            0.0000000000
     34272      2556  MEOH      H1C             6.1738538962       -9.1488929088       -0.5681223783  MEOH      1864            0.0000000000
     34273      2556  MEOH      LP1A            5.8943312898      -11.0091625577        0.3104041060  MEOH      1864            0.0000000000
     34274      2556  MEOH      LP1B            5.8089996307      -10.9135763536        0.9554861824  MEOH      1864            0.0000000000
     34275      2557  MEOH      C1              9.4549815571       21.0006748769      -35.1687335486  MEOH      1865            0.0000000000
     34276      2557  MEOH      DC1             9.4455037335       21.0208795651      -35.1571914598  MEOH      1865            0.0000000000
     34277      2557  MEOH      O1              9.4895559029       22.2767809662      -34.5247785497  MEOH      1865            0.0000000000
     34278      2557  MEOH      DO1             9.4787175349       22.2974069143      -34.5140080122  MEOH      1865            0.0000000000
     34279      2557  MEOH      HO1            10.2549942657       22.2221599462      -33.9314652624  MEOH      1865            0.0000000000
     34280      2557  MEOH      HO2             9.4883579814       22.9259437381      -35.2455325032  MEOH      1865            0.0000000000
     34281      2557  MEOH      H1A             8.6587496750       20.9640380985      -35.9426802757  MEOH      1865            0.0000000000
     34282      2557  MEOH      H1B             9.2571524133       20.2093506412      -34.4144189020  MEOH      1865            0.0000000000
     34283      2557  MEOH      H1C            10.4317436804       20.7722326432      -35.6463012414  MEOH      1865            0.0000000000
     34284      2557  MEOH      LP1A            9.6815445511       22.5007519068      -34.7131329411  MEOH      1865            0.0000000000
     34285      2557  MEOH      LP1B            9.2940845086       22.2697371331      -34.2345349996  MEOH      1865            0.0000000000
     34286      2558  MEOH      C1              3.6524991572       13.2594924503        4.1822939937  MEOH      1866            0.0000000000
     34287      2558  MEOH      DC1             3.6483569694       13.2429445104        4.1735337236  MEOH      1866            0.0000000000
     34288      2558  MEOH      O1              2.2469298832       13.4597463973        4.3688578809  MEOH      1866            0.0000000000
     34289      2558  MEOH      DO1             2.2445307113       13.4435919004        4.3658379868  MEOH      1866            0.0000000000
     34290      2558  MEOH      HO1             1.8871041578       13.8733487813        3.5686338402  MEOH      1866            0.0000000000
     34291      2558  MEOH      HO2             1.8866057951       12.6310499836        4.7214607827  MEOH      1866            0.0000000000
     34292      2558  MEOH      H1A             4.1130880770       12.9611608189        5.1483049070  MEOH      1866            0.0000000000
     34293      2558  MEOH      H1B             4.1405246257       14.1970855209        3.8401370447  MEOH      1866            0.0000000000
     34294      2558  MEOH      H1C             3.8243264313       12.4561456468        3.4343432589  MEOH      1866            0.0000000000
     34295      2558  MEOH      LP1A            2.0705486176       13.1767293915        4.2625986526  MEOH      1866            0.0000000000
     34296      2558  MEOH      LP1B            2.1890431081       13.7716197125        4.5167908271  MEOH      1866            0.0000000000
     34297      2559  MEOH      C1             33.1026853907       27.7953830634       -2.9131637931  MEOH      1867            0.0000000000
     34298      2559  MEOH      DC1            33.1052552167       27.7963030549       -2.9126466308  MEOH      1867            0.0000000000
     34299      2559  MEOH      O1             32.0096292208       27.3392487096       -3.7096085173  MEOH      1867            0.0000000000
     34300      2559  MEOH      DO1            32.0014704919       27.3414693197       -3.7052157943  MEOH      1867            0.0000000000
     34301      2559  MEOH      HO1            31.8669794337       26.4071314962       -3.4822133979  MEOH      1867            0.0000000000
     34302      2559  MEOH      HO2            31.3064313250       27.9990238922       -3.6042072473  MEOH      1867            0.0000000000
     34303      2559  MEOH      H1A            33.4251821498       28.8076747505       -3.2380982193  MEOH      1867            0.0000000000
     34304      2559  MEOH      H1B            33.9628199617       27.1047753476       -3.0456421035  MEOH      1867            0.0000000000
     34305      2559  MEOH      H1C            32.8158804104       27.8277321773       -1.8403089848  MEOH      1867            0.0000000000
     34306      2559  MEOH      LP1A           31.7075897313       27.3960552392       -3.5421416101  MEOH      1867            0.0000000000
     34307      2559  MEOH      LP1B           32.1274293321       27.2163458225       -4.0154156691  MEOH      1867            0.0000000000
     34308      2560  MEOH      C1             -3.1245384159        4.1663073186       11.4430058196  MEOH      1868            0.0000000000
     34309      2560  MEOH      DC1            -3.1112478553        4.1574502202       11.4475209507  MEOH      1868            0.0000000000
     34310      2560  MEOH      O1             -3.8589928640        2.9730047238       11.6967572587  MEOH      1868            0.0000000000
     34311      2560  MEOH      DO1            -3.8396892913        2.9556079082       11.6914345368  MEOH      1868            0.0000000000
     34312      2560  MEOH      HO1            -4.7937211025        3.2306515366       11.7250634436  MEOH      1868            0.0000000000
     34313      2560  MEOH      HO2            -3.5344455284        2.3042067042       11.0736374972  MEOH      1868            0.0000000000
     34314      2560  MEOH      H1A            -2.0488681276        3.9976195610       11.6639104889  MEOH      1868            0.0000000000
     34315      2560  MEOH      H1B            -3.5148640635        4.9783076377       12.0930999443  MEOH      1868            0.0000000000
     34316      2560  MEOH      H1C            -3.2503336892        4.4749742959       10.3831844920  MEOH      1868            0.0000000000
     34317      2560  MEOH      LP1A           -3.9404219824        2.8160436008       11.3947100694  MEOH      1868            0.0000000000
     34318      2560  MEOH      LP1B           -3.8912481076        2.9233610491       12.0417139296  MEOH      1868            0.0000000000
     34319      2561  MEOH      C1            -16.9735039322      -22.6667889673        7.5341907685  MEOH      1869            0.0000000000
     34320      2561  MEOH      DC1           -16.9650284651      -22.6621203977        7.5227254761  MEOH      1869            0.0000000000
     34321      2561  MEOH      O1            -17.5383467333      -21.9500268566        8.6286470782  MEOH      1869            0.0000000000
     34322      2561  MEOH      DO1           -17.5243417761      -21.9332787117        8.6142382835  MEOH      1869            0.0000000000
     34323      2561  MEOH      HO1           -18.5019363681      -21.9834597393        8.5224526425  MEOH      1869            0.0000000000
     34324      2561  MEOH      HO2           -17.1596752568      -22.3749674799        9.4140981467  MEOH      1869            0.0000000000
     34325      2561  MEOH      H1A           -15.8818938268      -22.7807547961        7.7065861501  MEOH      1869            0.0000000000
     34326      2561  MEOH      H1B           -17.1376550715      -22.1169756156        6.5828334837  MEOH      1869            0.0000000000
     34327      2561  MEOH      H1C           -17.4305501525      -23.6770120691        7.4643406594  MEOH      1869            0.0000000000
     34328      2561  MEOH      LP1A          -17.5903620355      -22.1660036661        8.8991067353  MEOH      1869            0.0000000000
     34329      2561  MEOH      LP1B          -17.5706965215      -21.6114481417        8.5460762300  MEOH      1869            0.0000000000
     34330      2562  MEOH      C1             31.9131935922       11.9680345192        3.5230205340  MEOH      1870            0.0000000000
     34331      2562  MEOH      DC1            31.9078938818       11.9652745358        3.5190894308  MEOH      1870            0.0000000000
     34332      2562  MEOH      O1             31.7534059777       10.9694226937        2.5092773048  MEOH      1870            0.0000000000
     34333      2562  MEOH      DO1            31.7554720580       10.9660705566        2.5055762671  MEOH      1870            0.0000000000
     34334      2562  MEOH      HO1            31.0374528066       11.2612620412        1.9234950469  MEOH      1870            0.0000000000
     34335      2562  MEOH      HO2            32.6408955602       10.8138940827        2.1500098665  MEOH      1870            0.0000000000
     34336      2562  MEOH      H1A            32.6777764198       11.6373842421        4.2581426289  MEOH      1870            0.0000000000
     34337      2562  MEOH      H1B            30.9506256220       12.1348364538        4.0521339598  MEOH      1870            0.0000000000
     34338      2562  MEOH      H1C            32.2551255373       12.9242878007        3.0724839569  MEOH      1870            0.0000000000
     34339      2562  MEOH      LP1A           31.9628979726       11.0397743411        2.2378666384  MEOH      1870            0.0000000000
     34340      2562  MEOH      LP1B           31.5256777353       10.7259675016        2.6159047732  MEOH      1870            0.0000000000
     34341      2563  MEOH      C1              3.4418639722        5.3728679587      -30.2971292279  MEOH      1871            0.0000000000
     34342      2563  MEOH      DC1             3.4490599166        5.3658929609      -30.2657276140  MEOH      1871            0.0000000000
     34343      2563  MEOH      O1              2.8063907273        5.8307908317      -29.0985605363  MEOH      1871            0.0000000000
     34344      2563  MEOH      DO1             2.8206845837        5.8171581587      -29.0673084465  MEOH      1871            0.0000000000
     34345      2563  MEOH      HO1             1.8971014292        6.0421565900      -29.3620325280  MEOH      1871            0.0000000000
     34346      2563  MEOH      HO2             2.9909207403        5.1685236812      -28.4142719307  MEOH      1871            0.0000000000
     34347      2563  MEOH      H1A             4.5380451522        5.2818802301      -30.1408312630  MEOH      1871            0.0000000000
     34348      2563  MEOH      H1B             3.2663667986        6.0960450202      -31.1220756997  MEOH      1871            0.0000000000
     34349      2563  MEOH      H1C             3.0251190407        4.3888367909      -30.6009833432  MEOH      1871            0.0000000000
     34350      2563  MEOH      LP1A            2.6664888499        5.5601223346      -28.9263222440  MEOH      1871            0.0000000000
     34351      2563  MEOH      LP1B            2.8498117755        6.1764213518      -29.0645876629  MEOH      1871            0.0000000000
     34352      2564  MEOH      C1             12.4820416402        4.9592290293        2.8236863984  MEOH      1872            0.0000000000
     34353      2564  MEOH      DC1            12.4707095283        4.9539593502        2.8229140336  MEOH      1872            0.0000000000
     34354      2564  MEOH      O1             12.3409173848        6.2870353701        2.3134353437  MEOH      1872            0.0000000000
     34355      2564  MEOH      DO1            12.3371889147        6.2841931932        2.3103745366  MEOH      1872            0.0000000000
     34356      2564  MEOH      HO1            11.8830318212        6.8217538079        2.9807561084  MEOH      1872            0.0000000000
     34357      2564  MEOH      HO2            13.2177914263        6.5482414245        1.9913122091  MEOH      1872            0.0000000000
     34358      2564  MEOH      H1A            12.9636451425        4.3180424398        2.0547528351  MEOH      1872            0.0000000000
     34359      2564  MEOH      H1B            11.4859884909        4.5382167607        3.0785349680  MEOH      1872            0.0000000000
     34360      2564  MEOH      H1C            13.1242129304        4.9682294422        3.7302491530  MEOH      1872            0.0000000000
     34361      2564  MEOH      LP1A           12.6211657415        6.4785162035        2.3988516711  MEOH      1872            0.0000000000
     34362      2564  MEOH      LP1B           12.0423649622        6.3147958677        2.1328922582  MEOH      1872            0.0000000000
     34363      2565  MEOH      C1            -23.4555177606      -11.6384485115       28.4635942460  MEOH      1873            0.0000000000
     34364      2565  MEOH      DC1           -23.4593629596      -11.6416923740       28.4693945037  MEOH      1873            0.0000000000
     34365      2565  MEOH      O1            -23.6528800414      -11.5852012868       29.8783282179  MEOH      1873            0.0000000000
     34366      2565  MEOH      DO1           -23.6574249519      -11.5894082483       29.8843542688  MEOH      1873            0.0000000000
     34367      2565  MEOH      HO1           -24.2264423602      -12.3301995464       30.1168735168  MEOH      1873            0.0000000000
     34368      2565  MEOH      HO2           -22.7670361766      -11.5046393507       30.2652266831  MEOH      1873            0.0000000000
     34369      2565  MEOH      H1A           -22.8638038247      -10.7575250371       28.1347030020  MEOH      1873            0.0000000000
     34370      2565  MEOH      H1B           -24.4358432481      -11.6251414007       27.9409989327  MEOH      1873            0.0000000000
     34371      2565  MEOH      H1C           -22.9011480779      -12.5616077477       28.1901490412  MEOH      1873            0.0000000000
     34372      2565  MEOH      LP1A          -23.4012148138      -11.7658712708       30.0411869606  MEOH      1873            0.0000000000
     34373      2565  MEOH      LP1B          -23.9309858277      -11.3862482526       29.9529932152  MEOH      1873            0.0000000000
     34374      2566  MEOH      C1            -21.7948920416       -8.8527095289       12.3468293580  MEOH      1874            0.0000000000
     34375      2566  MEOH      DC1           -21.8005497476       -8.8683006459       12.3324918623  MEOH      1874            0.0000000000
     34376      2566  MEOH      O1            -20.6130746236       -9.5192932754       11.8928864961  MEOH      1874            0.0000000000
     34377      2566  MEOH      DO1           -20.6159339364       -9.5424766894       11.8844158722  MEOH      1874            0.0000000000
     34378      2566  MEOH      HO1           -20.8921418908      -10.3379555147       11.4537810428  MEOH      1874            0.0000000000
     34379      2566  MEOH      HO2           -20.0930178002       -8.8484233781       11.4234458914  MEOH      1874            0.0000000000
     34380      2566  MEOH      H1A           -21.5181131801       -7.9719054511       12.9648088386  MEOH      1874            0.0000000000
     34381      2566  MEOH      H1B           -22.4276865817       -9.5589760965       12.9256899699  MEOH      1874            0.0000000000
     34382      2566  MEOH      H1C           -22.4151057051       -8.4743992139       11.5062716157  MEOH      1874            0.0000000000
     34383      2566  MEOH      LP1A          -20.5305776100       -9.4105046029       11.5706144566  MEOH      1874            0.0000000000
     34384      2566  MEOH      LP1B          -20.4913801981       -9.7311463529       12.1435032162  MEOH      1874            0.0000000000
     34385      2567  MEOH      C1             -3.9699290793       26.7128948676        6.0801252938  MEOH      1875            0.0000000000
     34386      2567  MEOH      DC1            -3.9706211990       26.7257098251        6.0770404637  MEOH      1875            0.0000000000
     34387      2567  MEOH      O1             -4.1993956876       27.8779637505        5.2829923601  MEOH      1875            0.0000000000
     34388      2567  MEOH      DO1            -4.2141127167       27.8865663811        5.2857271164  MEOH      1875            0.0000000000
     34389      2567  MEOH      HO1            -4.7091686935       28.5019835601        5.8230208413  MEOH      1875            0.0000000000
     34390      2567  MEOH      HO2            -3.3325663490       28.1361258373        4.9324795434  MEOH      1875            0.0000000000
     34391      2567  MEOH      H1A            -3.4460259668       25.9429710384        5.4742673664  MEOH      1875            0.0000000000
     34392      2567  MEOH      H1B            -4.9314945349       26.2767487748        6.4257977701  MEOH      1875            0.0000000000
     34393      2567  MEOH      H1C            -3.3513048611       26.9707909222        6.9661922787  MEOH      1875            0.0000000000
     34394      2567  MEOH      LP1A           -3.9359633924       28.1047537769        5.3238544429  MEOH      1875            0.0000000000
     34395      2567  MEOH      LP1B           -4.4954952737       27.8413890284        5.0999969372  MEOH      1875            0.0000000000
     34396      2568  MEOH      C1             18.2175433598        2.0498133976      -18.3095620878  MEOH      1876            0.0000000000
     34397      2568  MEOH      DC1            18.2194590501        2.0516462909      -18.3075026136  MEOH      1876            0.0000000000
     34398      2568  MEOH      O1             17.2495130688        1.5592869319      -17.3801902997  MEOH      1876            0.0000000000
     34399      2568  MEOH      DO1            17.2524375309        1.5494886737      -17.3760883406  MEOH      1876            0.0000000000
     34400      2568  MEOH      HO1            16.4007516234        1.5344656973      -17.8491123785  MEOH      1876            0.0000000000
     34401      2568  MEOH      HO2            17.6379020356        0.7634126228      -16.9844149915  MEOH      1876            0.0000000000
     34402      2568  MEOH      H1A            19.1827137067        2.2416832040      -17.7938556026  MEOH      1876            0.0000000000
     34403      2568  MEOH      H1B            17.8394067437        2.9733003207      -18.7979324435  MEOH      1876            0.0000000000
     34404      2568  MEOH      H1C            18.4139856256        1.3013399466      -19.1067564996  MEOH      1876            0.0000000000
     34405      2568  MEOH      LP1A           17.2351780854        1.2099153525      -17.3954876121  MEOH      1876            0.0000000000
     34406      2568  MEOH      LP1B           17.1097953754        1.8255887031      -17.2011307208  MEOH      1876            0.0000000000
     34407      2569  MEOH      C1            -24.5214926094       36.4894396098      -34.7521906668  MEOH      1877            0.0000000000
     34408      2569  MEOH      DC1           -24.5019188104       36.4767812910      -34.7843363532  MEOH      1877            0.0000000000
     34409      2569  MEOH      O1            -23.8702946564       35.4414668864      -35.4748237438  MEOH      1877            0.0000000000
     34410      2569  MEOH      DO1           -23.8609318697       35.4348883224      -35.4996036326  MEOH      1877            0.0000000000
     34411      2569  MEOH      HO1           -23.2411428594       35.0624272572      -34.8412647670  MEOH      1877            0.0000000000
     34412      2569  MEOH      HO2           -24.5872041107       34.8960420986      -35.8346190123  MEOH      1877            0.0000000000
     34413      2569  MEOH      H1A           -25.1926241336       37.0704286356      -35.4202888849  MEOH      1877            0.0000000000
     34414      2569  MEOH      H1B           -23.7707222755       37.1704714470      -34.2973714228  MEOH      1877            0.0000000000
     34415      2569  MEOH      H1C           -25.1373696079       36.0621762703      -33.9321525200  MEOH      1877            0.0000000000
     34416      2569  MEOH      LP1A          -24.0487020858       35.1425022230      -35.4388943800  MEOH      1877            0.0000000000
     34417      2569  MEOH      LP1B          -23.5891854912       35.5674073688      -35.6410062702  MEOH      1877            0.0000000000
     34418      2570  MEOH      C1             11.1450449887      -36.1844848347       -7.8261789192  MEOH      1878            0.0000000000
     34419      2570  MEOH      DC1            11.1600143583      -36.1765092547       -7.8401654597  MEOH      1878            0.0000000000
     34420      2570  MEOH      O1             11.9554927209      -36.6350224312       -8.8966695529  MEOH      1878            0.0000000000
     34421      2570  MEOH      DO1            11.9716694814      -36.6320241714       -8.8989378565  MEOH      1878            0.0000000000
     34422      2570  MEOH      HO1            11.5859925843      -37.4854592096       -9.1814974584  MEOH      1878            0.0000000000
     34423      2570  MEOH      HO2            12.0353942275      -35.8837340890       -9.5050128574  MEOH      1878            0.0000000000
     34424      2570  MEOH      H1A            11.2561126102      -35.0885328324       -7.6816998774  MEOH      1878            0.0000000000
     34425      2570  MEOH      H1B            11.4527114141      -36.6756471290       -6.8783276798  MEOH      1878            0.0000000000
     34426      2570  MEOH      H1C            10.0875062036      -36.4409396301       -8.0501513640  MEOH      1878            0.0000000000
     34427      2570  MEOH      LP1A           11.8320675522      -36.5120707786       -9.2002302863  MEOH      1878            0.0000000000
     34428      2570  MEOH      LP1B           12.2224191888      -36.8247201612       -8.7731178150  MEOH      1878            0.0000000000
     34429      2571  MEOH      C1            -30.9595262153      -35.5544179503      -19.1322372543  MEOH      1879            0.0000000000
     34430      2571  MEOH      DC1           -30.9634057952      -35.5604328190      -19.1297121385  MEOH      1879            0.0000000000
     34431      2571  MEOH      O1            -31.7522619193      -36.1760793283      -18.1176836594  MEOH      1879            0.0000000000
     34432      2571  MEOH      DO1           -31.7503416342      -36.1770702486      -18.1114821827  MEOH      1879            0.0000000000
     34433      2571  MEOH      HO1           -32.3786972616      -35.5056718650      -17.8029892115  MEOH      1879            0.0000000000
     34434      2571  MEOH      HO2           -32.0906581833      -36.9939310944      -18.5145544914  MEOH      1879            0.0000000000
     34435      2571  MEOH      H1A           -30.2097710779      -36.2775107576      -19.5186632210  MEOH      1879            0.0000000000
     34436      2571  MEOH      H1B           -30.4221673747      -34.6751748124      -18.7169084910  MEOH      1879            0.0000000000
     34437      2571  MEOH      H1C           -31.6100763206      -35.2191052665      -19.9681026530  MEOH      1879            0.0000000000
     34438      2571  MEOH      LP1A          -32.0325540425      -36.3286087292      -18.2614581620  MEOH      1879            0.0000000000
     34439      2571  MEOH      LP1B          -31.5988851894      -36.1374321071      -17.8054626303  MEOH      1879            0.0000000000
     34440      2572  MEOH      C1              9.9774390140       24.7951533806       30.1703260137  MEOH      1880            0.0000000000
     34441      2572  MEOH      DC1             9.9773155869       24.7946326425       30.1761535609  MEOH      1880            0.0000000000
     34442      2572  MEOH      O1              9.9717135922       24.6649307293       31.5906875138  MEOH      1880            0.0000000000
     34443      2572  MEOH      DO1             9.9668086180       24.6629023455       31.5949394287  MEOH      1880            0.0000000000
     34444      2572  MEOH      HO1             9.1844360231       25.1269308483       31.9187879849  MEOH      1880            0.0000000000
     34445      2572  MEOH      HO2            10.1034149719       23.7210028602       31.7711173498  MEOH      1880            0.0000000000
     34446      2572  MEOH      H1A            10.9235579869       24.3754261691       29.7665823348  MEOH      1880            0.0000000000
     34447      2572  MEOH      H1B             9.9040464613       25.8646993948       29.8787683740  MEOH      1880            0.0000000000
     34448      2572  MEOH      H1C             9.1202279050       24.2374557499       29.7361791869  MEOH      1880            0.0000000000
     34449      2572  MEOH      LP1A            9.8021526077       24.3731397315       31.6834618966  MEOH      1880            0.0000000000
     34450      2572  MEOH      LP1B           10.1500556867       24.9288125084       31.7358098898  MEOH      1880            0.0000000000
     34451      2573  MEOH      C1             16.4720149434       -8.3722253534       17.3469416230  MEOH      1881            0.0000000000
     34452      2573  MEOH      DC1            16.4614551494       -8.3795328451       17.3415392701  MEOH      1881            0.0000000000
     34453      2573  MEOH      O1             15.0485529592       -8.4136221455       17.3199874522  MEOH      1881            0.0000000000
     34454      2573  MEOH      DO1            15.0405854125       -8.4133175837       17.3100885604  MEOH      1881            0.0000000000
     34455      2573  MEOH      HO1            14.7642931172       -7.7161926187       16.7086868737  MEOH      1881            0.0000000000
     34456      2573  MEOH      HO2            14.8107783938       -9.3432194449       17.1778181252  MEOH      1881            0.0000000000
     34457      2573  MEOH      H1A            16.8576683337       -9.0282507611       18.1564001627  MEOH      1881            0.0000000000
     34458      2573  MEOH      H1B            16.8219793768       -7.3345232323       17.5340784801  MEOH      1881            0.0000000000
     34459      2573  MEOH      H1C            16.8807543332       -8.7201295398       16.3742053847  MEOH      1881            0.0000000000
     34460      2573  MEOH      LP1A           14.9399218367       -8.6355548115       17.0721060874  MEOH      1881            0.0000000000
     34461      2573  MEOH      LP1B           14.9180255772       -8.2073549375       17.5708189523  MEOH      1881            0.0000000000
     34462      2574  MEOH      C1             -2.0485818521      -36.9106438697      -29.6271557684  MEOH      1882            0.0000000000
     34463      2574  MEOH      DC1            -2.0351350116      -36.9045868535      -29.6364658992  MEOH      1882            0.0000000000
     34464      2574  MEOH      O1             -3.3049221081      -36.6887799925      -28.9968816998  MEOH      1882            0.0000000000
     34465      2574  MEOH      DO1            -3.2903303517      -36.6840138315      -29.0006102789  MEOH      1882            0.0000000000
     34466      2574  MEOH      HO1            -3.8327520256      -36.1055741570      -29.5644788559  MEOH      1882            0.0000000000
     34467      2574  MEOH      HO2            -3.6427874166      -37.5703732252      -28.7743049557  MEOH      1882            0.0000000000
     34468      2574  MEOH      H1A            -1.4067642378      -37.5158221801      -28.9517667220  MEOH      1882            0.0000000000
     34469      2574  MEOH      H1B            -1.5556023348      -35.9349667882      -29.8255151104  MEOH      1882            0.0000000000
     34470      2574  MEOH      H1C            -2.1769197787      -37.4686387916      -30.5792545257  MEOH      1882            0.0000000000
     34471      2574  MEOH      LP1A           -3.5328830182      -36.9359657009      -29.0940055846  MEOH      1882            0.0000000000
     34472      2574  MEOH      LP1B           -3.2851210631      -36.4109443242      -28.7849494936  MEOH      1882            0.0000000000
     34473      2575  MEOH      C1            -26.0273079401      -36.2448153275       23.8479706172  MEOH      1883            0.0000000000
     34474      2575  MEOH      DC1           -26.0185865823      -36.2484953650       23.8277549560  MEOH      1883            0.0000000000
     34475      2575  MEOH      O1            -26.0250633619      -35.7756784121       22.4932861013  MEOH      1883            0.0000000000
     34476      2575  MEOH      DO1           -26.0320402855      -35.7866070120       22.4764640866  MEOH      1883            0.0000000000
     34477      2575  MEOH      HO1           -25.2878145204      -35.1517244512       22.4035888237  MEOH      1883            0.0000000000
     34478      2575  MEOH      HO2           -26.1278909862      -36.5490587339       21.9169100456  MEOH      1883            0.0000000000
     34479      2575  MEOH      H1A           -26.9071531185      -36.9029420857       24.0124778618  MEOH      1883            0.0000000000
     34480      2575  MEOH      H1B           -26.0726129240      -35.4025906675       24.5711068982  MEOH      1883            0.0000000000
     34481      2575  MEOH      H1C           -25.1044233777      -36.8232944571       24.0669842722  MEOH      1883            0.0000000000
     34482      2575  MEOH      LP1A          -25.8304046267      -35.9872392279       22.2936614584  MEOH      1883            0.0000000000
     34483      2575  MEOH      LP1B          -26.2284854373      -35.4923331189       22.4643913953  MEOH      1883            0.0000000000
     34484      2576  MEOH      C1              5.8374718818        9.2329049390       25.2414765352  MEOH      1884            0.0000000000
     34485      2576  MEOH      DC1             5.8539692095        9.2485069996       25.2450380204  MEOH      1884            0.0000000000
     34486      2576  MEOH      O1              7.1334393528        8.8358033221       25.6975322982  MEOH      1884            0.0000000000
     34487      2576  MEOH      DO1             7.1451548477        8.8396467082       25.7036364240  MEOH      1884            0.0000000000
     34488      2576  MEOH      HO1             6.9789054843        8.0107586106       26.1836603768  MEOH      1884            0.0000000000
     34489      2576  MEOH      HO2             7.6910968055        8.8126221504       24.9041970608  MEOH      1884            0.0000000000
     34490      2576  MEOH      H1A             5.9106232216       10.1704148109       24.6498304229  MEOH      1884            0.0000000000
     34491      2576  MEOH      H1B             5.1661759674        9.3981505799       26.1111757208  MEOH      1884            0.0000000000
     34492      2576  MEOH      H1C             5.3960086690        8.4373268233       24.6039134435  MEOH      1884            0.0000000000
     34493      2576  MEOH      LP1A            7.2890934028        8.6356215585       25.4562874469  MEOH      1884            0.0000000000
     34494      2576  MEOH      LP1B            7.1993374362        8.9787666107       26.0101325872  MEOH      1884            0.0000000000
     34495      2577  MEOH      C1              8.1148722583       10.1293634933        7.0958135155  MEOH      1885            0.0000000000
     34496      2577  MEOH      DC1             8.1148463912       10.1099894403        7.1031933039  MEOH      1885            0.0000000000
     34497      2577  MEOH      O1              8.2932362848       11.4711604534        6.6465948195  MEOH      1885            0.0000000000
     34498      2577  MEOH      DO1             8.2919628385       11.4517351730        6.6509386494  MEOH      1885            0.0000000000
     34499      2577  MEOH      HO1             7.9483530570       11.5597904495        5.7443197595  MEOH      1885            0.0000000000
     34500      2577  MEOH      HO2             7.9232490639       12.0290232429        7.3485909480  MEOH      1885            0.0000000000
     34501      2577  MEOH      H1A             8.6252755277        9.9890034060        8.0725983171  MEOH      1885            0.0000000000
     34502      2577  MEOH      H1B             8.5525421543        9.4140669453        6.3670358315  MEOH      1885            0.0000000000
     34503      2577  MEOH      H1C             7.0298958288        9.9251761917        7.2201304249  MEOH      1885            0.0000000000
     34504      2577  MEOH      LP1A            8.0152995454       11.6648143873        6.7346250572  MEOH      1885            0.0000000000
     34505      2577  MEOH      LP1B            8.6059555769       11.5054732765        6.4932022691  MEOH      1885            0.0000000000
     34506      2578  MEOH      C1            -21.3910172643       17.7791592125       25.2085602772  MEOH      1886            0.0000000000
     34507      2578  MEOH      DC1           -21.3857336626       17.7906790968       25.2055842535  MEOH      1886            0.0000000000
     34508      2578  MEOH      O1            -21.0147082773       18.6154628934       26.3061288905  MEOH      1886            0.0000000000
     34509      2578  MEOH      DO1           -21.0201802329       18.6208511734       26.3058014808  MEOH      1886            0.0000000000
     34510      2578  MEOH      HO1           -21.1176351104       18.0846295977       27.1114375761  MEOH      1886            0.0000000000
     34511      2578  MEOH      HO2           -20.1392064022       18.9670329170       26.0807514594  MEOH      1886            0.0000000000
     34512      2578  MEOH      H1A           -21.3301242462       18.3567479213       24.2614571552  MEOH      1886            0.0000000000
     34513      2578  MEOH      H1B           -22.4306996476       17.4119943149       25.3448374990  MEOH      1886            0.0000000000
     34514      2578  MEOH      H1C           -20.7060532946       16.9076321258       25.1338214142  MEOH      1886            0.0000000000
     34515      2578  MEOH      LP1A          -20.6710990206       18.5867450055       26.3661952004  MEOH      1886            0.0000000000
     34516      2578  MEOH      LP1B          -21.2931418369       18.7927611267       26.4224907804  MEOH      1886            0.0000000000
     34517      2579  MEOH      C1             31.4251485315       36.6195298427       14.0403159476  MEOH      1887            0.0000000000
     34518      2579  MEOH      DC1            31.4297319343       36.6036878812       14.0434858468  MEOH      1887            0.0000000000
     34519      2579  MEOH      O1             32.7513113141       37.0023033387       13.6700182198  MEOH      1887            0.0000000000
     34520      2579  MEOH      DO1            32.7599481868       36.9927627961       13.6791672599  MEOH      1887            0.0000000000
     34521      2579  MEOH      HO1            33.1068813499       37.5617049428       14.3782129635  MEOH      1887            0.0000000000
     34522      2579  MEOH      HO2            33.2014419036       36.2054403612       13.3486277262  MEOH      1887            0.0000000000
     34523      2579  MEOH      H1A            30.9027770260       36.1956291603       13.1561455885  MEOH      1887            0.0000000000
     34524      2579  MEOH      H1B            30.8580117515       37.5067386677       14.3946284851  MEOH      1887            0.0000000000
     34525      2579  MEOH      H1C            31.4627056996       35.8644235870       14.8543951832  MEOH      1887            0.0000000000
     34526      2579  MEOH      LP1A           32.9810324697       36.7646060474       13.7850320815  MEOH      1887            0.0000000000
     34527      2579  MEOH      LP1B           32.7427563889       37.2981591430       13.4832130904  MEOH      1887            0.0000000000
     34528      2580  MEOH      C1            -35.3233022366        2.9576346425      -11.3127088193  MEOH      1888            0.0000000000
     34529      2580  MEOH      DC1           -35.3318732316        2.9545125917      -11.3141888571  MEOH      1888            0.0000000000
     34530      2580  MEOH      O1            -33.9218213972        2.9154260386      -11.5946393943  MEOH      1888            0.0000000000
     34531      2580  MEOH      DO1           -33.9306607848        2.9132673347      -11.5918918293  MEOH      1888            0.0000000000
     34532      2580  MEOH      HO1           -33.7957766866        2.7703105364      -12.5454044662  MEOH      1888            0.0000000000
     34533      2580  MEOH      HO2           -33.5472606534        3.7073750768      -11.1782009585  MEOH      1888            0.0000000000
     34534      2580  MEOH      H1A           -35.4712296747        3.0632694316      -10.2166797293  MEOH      1888            0.0000000000
     34535      2580  MEOH      H1B           -35.8131100722        2.0206541178      -11.6539957680  MEOH      1888            0.0000000000
     34536      2580  MEOH      H1C           -35.7882708261        3.8305142785      -11.8188771232  MEOH      1888            0.0000000000
     34537      2580  MEOH      LP1A          -33.8035683818        3.2378166288      -11.6623190195  MEOH      1888            0.0000000000
     34538      2580  MEOH      LP1B          -33.8031763560        2.5876692539      -11.5630348972  MEOH      1888            0.0000000000
     34539      2581  MEOH      C1             35.3766303943       -1.2158849300       -6.3875247202  MEOH      1889            0.0000000000
     34540      2581  MEOH      DC1            35.3795708605       -1.2334145614       -6.3893819769  MEOH      1889            0.0000000000
     34541      2581  MEOH      O1             35.5136638637       -0.1285098276       -7.3132285162  MEOH      1889            0.0000000000
     34542      2581  MEOH      DO1            35.5328714627       -0.1426066825       -7.3230098237  MEOH      1889            0.0000000000
     34543      2581  MEOH      HO1            36.1765628165        0.5064024995       -6.9996183822  MEOH      1889            0.0000000000
     34544      2581  MEOH      HO2            35.4584882721       -0.4808246958       -8.2152982961  MEOH      1889            0.0000000000
     34545      2581  MEOH      H1A            34.3293794904       -1.5865428338       -6.3734086564  MEOH      1889            0.0000000000
     34546      2581  MEOH      H1B            35.6498446034       -0.8825938054       -5.3635168969  MEOH      1889            0.0000000000
     34547      2581  MEOH      H1C            36.0163874595       -2.0704973496       -6.6952088303  MEOH      1889            0.0000000000
     34548      2581  MEOH      LP1A           35.7556675489       -0.2059804238       -7.5539202757  MEOH      1889            0.0000000000
     34549      2581  MEOH      LP1B           35.2865579835        0.1256775495       -7.2337823302  MEOH      1889            0.0000000000
     34550      2582  MEOH      C1             34.1007665799       -6.9279336510      -23.5380205781  MEOH      1890            0.0000000000
     34551      2582  MEOH      DC1            34.1069565785       -6.9227846229      -23.5612105884  MEOH      1890            0.0000000000
     34552      2582  MEOH      O1             33.6854731059       -6.2740618185      -24.7312224130  MEOH      1890            0.0000000000
     34553      2582  MEOH      DO1            33.6939165452       -6.2701996011      -24.7562316024  MEOH      1890            0.0000000000
     34554      2582  MEOH      HO1            32.9464530521       -6.7836504546      -25.0987394630  MEOH      1890            0.0000000000
     34555      2582  MEOH      HO2            33.5903347039       -5.3349787874      -24.5076788013  MEOH      1890            0.0000000000
     34556      2582  MEOH      H1A            34.9256162960       -6.3610319281      -23.0557692091  MEOH      1890            0.0000000000
     34557      2582  MEOH      H1B            34.4455055252       -7.9579265656      -23.7716670106  MEOH      1890            0.0000000000
     34558      2582  MEOH      H1C            33.2398108835       -6.9776253775      -22.8375871247  MEOH      1890            0.0000000000
     34559      2582  MEOH      LP1A           33.4427430245       -6.0329725465      -24.6573436575  MEOH      1890            0.0000000000
     34560      2582  MEOH      LP1B           33.8664270431       -6.3971363742      -25.0043676607  MEOH      1890            0.0000000000
     34561      2583  MEOH      C1             12.3119765063       23.5974709225       -3.1801668820  MEOH      1891            0.0000000000
     34562      2583  MEOH      DC1            12.2996046814       23.5954368997       -3.1862733816  MEOH      1891            0.0000000000
     34563      2583  MEOH      O1             11.4431519050       24.3603853937       -4.0125714095  MEOH      1891            0.0000000000
     34564      2583  MEOH      DO1            11.4242218525       24.3547083178       -4.0214845857  MEOH      1891            0.0000000000
     34565      2583  MEOH      HO1            11.8945757149       24.4308821367       -4.8682271544  MEOH      1891            0.0000000000
     34566      2583  MEOH      HO2            10.5605490608       23.9672529394       -3.9267862549  MEOH      1891            0.0000000000
     34567      2583  MEOH      H1A            12.0257744085       23.7085618561       -2.1124271359  MEOH      1891            0.0000000000
     34568      2583  MEOH      H1B            13.3505129743       23.9785838641       -3.2827140989  MEOH      1891            0.0000000000
     34569      2583  MEOH      H1C            12.2728093201       22.5236466438       -3.4624581323  MEOH      1891            0.0000000000
     34570      2583  MEOH      LP1A           11.2195485641       24.1482924931       -4.1784573565  MEOH      1891            0.0000000000
     34571      2583  MEOH      LP1B           11.5132376204       24.7015424158       -3.9779321437  MEOH      1891            0.0000000000
     34572      2584  MEOH      C1            -21.3557204927      -14.9696197327       16.4705725906  MEOH      1892            0.0000000000
     34573      2584  MEOH      DC1           -21.3559523737      -14.9555349308       16.4748677832  MEOH      1892            0.0000000000
     34574      2584  MEOH      O1            -20.5242434398      -15.5415189954       17.4835590363  MEOH      1892            0.0000000000
     34575      2584  MEOH      DO1           -20.5234547941      -15.5160660268       17.4918965972  MEOH      1892            0.0000000000
     34576      2584  MEOH      HO1           -19.6255090890      -15.6793147778       17.1456405712  MEOH      1892            0.0000000000
     34577      2584  MEOH      HO2           -20.7534246817      -15.1406635617       18.3366070308  MEOH      1892            0.0000000000
     34578      2584  MEOH      H1A           -22.4049194061      -15.2938606807       16.6390078847  MEOH      1892            0.0000000000
     34579      2584  MEOH      H1B           -21.0395380244      -15.3237202153       15.4661013391  MEOH      1892            0.0000000000
     34580      2584  MEOH      H1C           -21.3078953127      -13.8604355143       16.5123352959  MEOH      1892            0.0000000000
     34581      2584  MEOH      LP1A          -20.3748645935      -15.2879886421       17.6730539444  MEOH      1892            0.0000000000
     34582      2584  MEOH      LP1B          -20.5432677440      -15.8907747193       17.4709687549  MEOH      1892            0.0000000000
     34583      2585  MEOH      C1            -10.9031004773       28.8585026516      -17.1710701885  MEOH      1893            0.0000000000
     34584      2585  MEOH      DC1           -10.8874693497       28.8556529769      -17.1794136932  MEOH      1893            0.0000000000
     34585      2585  MEOH      O1             -9.8677479653       29.4718705197      -17.9331522713  MEOH      1893            0.0000000000
     34586      2585  MEOH      DO1            -9.8565301172       29.4604480268      -17.9527820989  MEOH      1893            0.0000000000
     34587      2585  MEOH      HO1           -10.3083152281       30.1812810134      -18.4266471937  MEOH      1893            0.0000000000
     34588      2585  MEOH      HO2            -9.1841969728       29.7006651295      -17.2840674788  MEOH      1893            0.0000000000
     34589      2585  MEOH      H1A           -10.4861657993       28.0875580357      -16.4883324103  MEOH      1893            0.0000000000
     34590      2585  MEOH      H1B           -11.6376920396       28.3846974404      -17.8567850418  MEOH      1893            0.0000000000
     34591      2585  MEOH      H1C           -11.4272761488       29.6239038573      -16.5597422404  MEOH      1893            0.0000000000
     34592      2585  MEOH      LP1A           -9.7183330769       29.7282481969      -17.7475568032  MEOH      1893            0.0000000000
     34593      2585  MEOH      LP1B           -9.8355271469       29.3112142915      -18.2424278688  MEOH      1893            0.0000000000
     34594      2586  MEOH      C1             30.2988886963       -9.9315279219        8.1300346454  MEOH      1894            0.0000000000
     34595      2586  MEOH      DC1            30.3025275287       -9.9227697448        8.1325647019  MEOH      1894            0.0000000000
     34596      2586  MEOH      O1             29.4628138534      -10.8160535921        8.8734274190  MEOH      1894            0.0000000000
     34597      2586  MEOH      DO1            29.4668411368      -10.8000681268        8.8755295997  MEOH      1894            0.0000000000
     34598      2586  MEOH      HO1            29.9711134956      -11.5956184539        9.1469417696  MEOH      1894            0.0000000000
     34599      2586  MEOH      HO2            28.9865647479      -10.2731126461        9.5209626839  MEOH      1894            0.0000000000
     34600      2586  MEOH      H1A            29.6628556452       -9.1722153775        7.6268175765  MEOH      1894            0.0000000000
     34601      2586  MEOH      H1B            30.8529724166      -10.4964182021        7.3501556790  MEOH      1894            0.0000000000
     34602      2586  MEOH      H1C            31.0178452314       -9.4127714790        8.7995973801  MEOH      1894            0.0000000000
     34603      2586  MEOH      LP1A           29.4735052071      -10.7334662492        9.2133759824  MEOH      1894            0.0000000000
     34604      2586  MEOH      LP1B           29.3029604628      -11.0398801754        8.6569821508  MEOH      1894            0.0000000000
     34605      2587  MEOH      C1              1.1614447752       15.8407568869      -35.0557297676  MEOH      1895            0.0000000000
     34606      2587  MEOH      DC1             1.1774128203       15.8531127134      -35.0636879897  MEOH      1895            0.0000000000
     34607      2587  MEOH      O1              2.4081415383       15.4569921662      -34.4536076639  MEOH      1895            0.0000000000
     34608      2587  MEOH      DO1             2.4087684577       15.4462796927      -34.4684560929  MEOH      1895            0.0000000000
     34609      2587  MEOH      HO1             2.8107135459       16.2332711104      -34.0338139295  MEOH      1895            0.0000000000
     34610      2587  MEOH      HO2             2.1945781061       14.6956548019      -33.8917748778  MEOH      1895            0.0000000000
     34611      2587  MEOH      H1A             0.6089316373       14.9592946092      -35.4456970554  MEOH      1895            0.0000000000
     34612      2587  MEOH      H1B             1.3228065026       16.5222870231      -35.9181682104  MEOH      1895            0.0000000000
     34613      2587  MEOH      H1C             0.5109707990       16.3351448609      -34.3028784292  MEOH      1895            0.0000000000
     34614      2587  MEOH      LP1A            2.3542440540       15.3494492819      -34.1249291139  MEOH      1895            0.0000000000
     34615      2587  MEOH      LP1B            2.6682048968       15.4897952757      -34.6855365443  MEOH      1895            0.0000000000
     34616      2588  MEOH      C1             30.7605721532       -8.7400495214      -25.4286941822  MEOH      1896            0.0000000000
     34617      2588  MEOH      DC1            30.7704582404       -8.7356660772      -25.4288268120  MEOH      1896            0.0000000000
     34618      2588  MEOH      O1             29.8386097416       -9.0261100118      -26.4822415903  MEOH      1896            0.0000000000
     34619      2588  MEOH      DO1            29.8405974395       -9.0285621722      -26.4754715340  MEOH      1896            0.0000000000
     34620      2588  MEOH      HO1            29.0548529671       -8.4694511314      -26.3527958108  MEOH      1896            0.0000000000
     34621      2588  MEOH      HO2            30.3496360212       -8.9612499352      -27.3041572259  MEOH      1896            0.0000000000
     34622      2588  MEOH      H1A            31.6565124450       -9.3886319101      -25.5333501872  MEOH      1896            0.0000000000
     34623      2588  MEOH      H1B            30.2854739153       -8.9359531215      -24.4436944643  MEOH      1896            0.0000000000
     34624      2588  MEOH      H1C            31.0711914372       -7.6746466191      -25.4811662346  MEOH      1896            0.0000000000
     34625      2588  MEOH      LP1A           29.9020664959       -8.8182288215      -26.7565746927  MEOH      1896            0.0000000000
     34626      2588  MEOH      LP1B           29.6280304147       -9.2895893760      -26.3887805197  MEOH      1896            0.0000000000
     34627      2589  MEOH      C1             25.1679474000       22.7277054641        1.6379259345  MEOH      1897            0.0000000000
     34628      2589  MEOH      DC1            25.1823319924       22.7327619470        1.6432656334  MEOH      1897            0.0000000000
     34629      2589  MEOH      O1             24.0736339979       23.3310636167        0.9534309326  MEOH      1897            0.0000000000
     34630      2589  MEOH      DO1            24.0858258460       23.3355927879        0.9531772283  MEOH      1897            0.0000000000
     34631      2589  MEOH      HO1            23.2702138856       22.8890873947        1.2697743283  MEOH      1897            0.0000000000
     34632      2589  MEOH      HO2            24.1864403282       24.2863786111        1.0781225252  MEOH      1897            0.0000000000
     34633      2589  MEOH      H1A            26.1333530637       23.0533141687        1.1948775427  MEOH      1897            0.0000000000
     34634      2589  MEOH      H1B            25.0742419451       21.6225277454        1.5737192497  MEOH      1897            0.0000000000
     34635      2589  MEOH      H1C            25.1549499540       23.0433844992        2.7030544775  MEOH      1897            0.0000000000
     34636      2589  MEOH      LP1A           23.9576072535       23.6077593585        1.1336454188  MEOH      1897            0.0000000000
     34637      2589  MEOH      LP1B           24.0130690827       23.1626647034        0.6526424736  MEOH      1897            0.0000000000
     34638      2590  MEOH      C1             -0.5949453932      -15.9066999621      -14.8100812328  MEOH      1898            0.0000000000
     34639      2590  MEOH      DC1            -0.5966450017      -15.9075520412      -14.8032729909  MEOH      1898            0.0000000000
     34640      2590  MEOH      O1             -0.0639516865      -16.0575582589      -16.1280343546  MEOH      1898            0.0000000000
     34641      2590  MEOH      DO1            -0.0669142364      -16.0591307365      -16.1236845190  MEOH      1898            0.0000000000
     34642      2590  MEOH      HO1            -0.4024572710      -16.8923767314      -16.4877454725  MEOH      1898            0.0000000000
     34643      2590  MEOH      HO2            -0.2539854963      -15.2240116635      -16.5862779846  MEOH      1898            0.0000000000
     34644      2590  MEOH      H1A            -0.1890541293      -14.9761106908      -14.3588862744  MEOH      1898            0.0000000000
     34645      2590  MEOH      H1B            -0.3048317131      -16.7680293320      -14.1711236684  MEOH      1898            0.0000000000
     34646      2590  MEOH      H1C            -1.7019767795      -15.8251651231      -14.8564986963  MEOH      1898            0.0000000000
     34647      2590  MEOH      LP1A           -0.2771147234      -15.9065711431      -16.3609815816  MEOH      1898            0.0000000000
     34648      2590  MEOH      LP1B            0.2437426250      -16.2238396126      -16.1148161075  MEOH      1898            0.0000000000
     34649      2591  MEOH      C1             16.8413809650       -3.1044490961      -10.0744231470  MEOH      1899            0.0000000000
     34650      2591  MEOH      DC1            16.8500690949       -3.1199586129      -10.0705559907  MEOH      1899            0.0000000000
     34651      2591  MEOH      O1             17.4445933880       -4.3610751666      -10.3861280942  MEOH      1899            0.0000000000
     34652      2591  MEOH      DO1            17.4546067402       -4.3854838026      -10.3868364806  MEOH      1899            0.0000000000
     34653      2591  MEOH      HO1            18.3014648857       -4.3218822858       -9.9332096076  MEOH      1899            0.0000000000
     34654      2591  MEOH      HO2            16.7832703597       -5.0321303926      -10.1553972209  MEOH      1899            0.0000000000
     34655      2591  MEOH      H1A            15.8800237873       -2.9761760252      -10.6163266403  MEOH      1899            0.0000000000
     34656      2591  MEOH      H1B            17.5310930484       -2.2790044857      -10.3523789703  MEOH      1899            0.0000000000
     34657      2591  MEOH      H1C            16.6517631749       -3.0522482869       -8.9809693665  MEOH      1899            0.0000000000
     34658      2591  MEOH      LP1A           17.3545016093       -4.5998085307      -10.1465663020  MEOH      1899            0.0000000000
     34659      2591  MEOH      LP1B           17.6265349361       -4.3359007637      -10.6840601712  MEOH      1899            0.0000000000
     34660      2592  MEOH      C1             -1.9584131746       32.5321056171      -15.8949420451  MEOH      1900            0.0000000000
     34661      2592  MEOH      DC1            -1.9477025834       32.5331991063      -15.9020455203  MEOH      1900            0.0000000000
     34662      2592  MEOH      O1             -2.3573429422       31.2841277120      -15.3298154787  MEOH      1900            0.0000000000
     34663      2592  MEOH      DO1            -2.3422764578       31.2804388874      -15.3413657378  MEOH      1900            0.0000000000
     34664      2592  MEOH      HO1            -3.1205873310       30.9420903517      -15.8211081091  MEOH      1900            0.0000000000
     34665      2592  MEOH      HO2            -1.5591815955       30.7684805432      -15.1350169627  MEOH      1900            0.0000000000
     34666      2592  MEOH      H1A            -1.3623953452       33.0920073236      -15.1428823228  MEOH      1900            0.0000000000
     34667      2592  MEOH      H1B            -2.8500509754       33.1361938685      -16.1676697818  MEOH      1900            0.0000000000
     34668      2592  MEOH      H1C            -1.3308690906       32.3525174940      -16.7939734847  MEOH      1900            0.0000000000
     34669      2592  MEOH      LP1A           -2.1837840746       31.0220664264      -15.4837674260  MEOH      1900            0.0000000000
     34670      2592  MEOH      LP1B           -2.5893904256       31.3375923088      -15.0733091390  MEOH      1900            0.0000000000
     34671      2593  MEOH      C1            -11.6305483061      -31.4531257235        4.7632118136  MEOH      1901            0.0000000000
     34672      2593  MEOH      DC1           -11.6356353815      -31.4450554478        4.7759082656  MEOH      1901            0.0000000000
     34673      2593  MEOH      O1            -10.3042531002      -31.6510794720        4.2633225874  MEOH      1901            0.0000000000
     34674      2593  MEOH      DO1           -10.3189899562      -31.6499103602        4.2778344977  MEOH      1901            0.0000000000
     34675      2593  MEOH      HO1            -9.6370380331      -31.2773428899        4.8600176699  MEOH      1901            0.0000000000
     34676      2593  MEOH      HO2           -10.2557412683      -32.5829954831        3.9985979161  MEOH      1901            0.0000000000
     34677      2593  MEOH      H1A           -12.3565892933      -31.7874177574        3.9915679054  MEOH      1901            0.0000000000
     34678      2593  MEOH      H1B           -11.8192761770      -30.3778452345        4.9693056348  MEOH      1901            0.0000000000
     34679      2593  MEOH      H1C           -11.7911118143      -32.0527051598        5.6846481162  MEOH      1901            0.0000000000
     34680      2593  MEOH      LP1A          -10.1779355045      -31.9570807177        4.3769320176  MEOH      1901            0.0000000000
     34681      2593  MEOH      LP1B          -10.2129637782      -31.3835845895        4.0568940343  MEOH      1901            0.0000000000
     34682      2594  MEOH      C1             11.3617077130      -27.9379188032      -33.1802583042  MEOH      1902            0.0000000000
     34683      2594  MEOH      DC1            11.3655607592      -27.9368664787      -33.1746558778  MEOH      1902            0.0000000000
     34684      2594  MEOH      O1             10.0429170022      -28.1134386489      -33.7019959679  MEOH      1902            0.0000000000
     34685      2594  MEOH      DO1            10.0460352147      -28.1190839036      -33.6995542671  MEOH      1902            0.0000000000
     34686      2594  MEOH      HO1             9.5106588952      -28.5495715573      -33.0183371395  MEOH      1902            0.0000000000
     34687      2594  MEOH      HO2             9.7748386699      -27.2424634731      -34.0343154714  MEOH      1902            0.0000000000
     34688      2594  MEOH      H1A            12.0086894520      -27.4883003665      -33.9635710712  MEOH      1902            0.0000000000
     34689      2594  MEOH      H1B            11.7900619469      -28.9187883087      -32.8823847320  MEOH      1902            0.0000000000
     34690      2594  MEOH      H1C            11.3337838758      -27.2598646285      -32.3006084899  MEOH      1902            0.0000000000
     34691      2594  MEOH      LP1A            9.8475109525      -27.8319686083      -33.6306440798  MEOH      1902            0.0000000000
     34692      2594  MEOH      LP1B           10.0206121562      -28.4193457090      -33.8705882703  MEOH      1902            0.0000000000
     34693      2595  MEOH      C1            -24.5566514093        1.7793223769       11.1067100784  MEOH      1903            0.0000000000
     34694      2595  MEOH      DC1           -24.5844429673        1.7698506374       11.0905662652  MEOH      1903            0.0000000000
     34695      2595  MEOH      O1            -25.5461069309        1.3565634977       10.1650598975  MEOH      1903            0.0000000000
     34696      2595  MEOH      DO1           -25.5621916291        1.3399378639       10.1406267744  MEOH      1903            0.0000000000
     34697      2595  MEOH      HO1           -26.2438257825        0.9364832112       10.6919573817  MEOH      1903            0.0000000000
     34698      2595  MEOH      HO2           -25.7468318226        2.1418149921        9.6321531437  MEOH      1903            0.0000000000
     34699      2595  MEOH      H1A           -23.7161522817        2.2955833509       10.5954793837  MEOH      1903            0.0000000000
     34700      2595  MEOH      H1B           -24.1295930392        0.9133045955       11.6562147213  MEOH      1903            0.0000000000
     34701      2595  MEOH      H1C           -24.9961676403        2.4695538631       11.8581932643  MEOH      1903            0.0000000000
     34702      2595  MEOH      LP1A          -25.7779359423        1.6132760596       10.1116373366  MEOH      1903            0.0000000000
     34703      2595  MEOH      LP1B          -25.4735924229        1.0332799126       10.0522353890  MEOH      1903            0.0000000000
     34704      2596  MEOH      C1              9.1201198128       -4.2141862447      -19.1405282783  MEOH      1904            0.0000000000
     34705      2596  MEOH      DC1             9.1295599500       -4.2242796375      -19.1474267361  MEOH      1904            0.0000000000
     34706      2596  MEOH      O1             10.4674867392       -4.3820075932      -18.7058030484  MEOH      1904            0.0000000000
     34707      2596  MEOH      DO1            10.4745201677       -4.3805068440      -18.7094943356  MEOH      1904            0.0000000000
     34708      2596  MEOH      HO1            10.9546333888       -4.8458337424      -19.4046974937  MEOH      1904            0.0000000000
     34709      2596  MEOH      HO2            10.7502049531       -3.5075893144      -18.3953790075  MEOH      1904            0.0000000000
     34710      2596  MEOH      H1A             8.5149484786       -3.8196828237      -18.2964573647  MEOH      1904            0.0000000000
     34711      2596  MEOH      H1B             8.6756030141       -5.1874142820      -19.4397823584  MEOH      1904            0.0000000000
     34712      2596  MEOH      H1C             9.0713344667       -3.4983607498      -19.9887822799  MEOH      1904            0.0000000000
     34713      2596  MEOH      LP1A           10.6591625592       -4.1048212286      -18.8002916682  MEOH      1904            0.0000000000
     34714      2596  MEOH      LP1B           10.4995610711       -4.6820425800      -18.5284608822  MEOH      1904            0.0000000000
     34715      2597  MEOH      C1            -13.6546331339       31.0777722686       -7.0142934982  MEOH      1905            0.0000000000
     34716      2597  MEOH      DC1           -13.6419834748       31.0795424043       -7.0038598027  MEOH      1905            0.0000000000
     34717      2597  MEOH      O1            -13.2293176685       31.8267788617       -8.1571340688  MEOH      1905            0.0000000000
     34718      2597  MEOH      DO1           -13.2143713564       31.8396870501       -8.1436217012  MEOH      1905            0.0000000000
     34719      2597  MEOH      HO1           -12.6672133153       31.2366347201       -8.6831270238  MEOH      1905            0.0000000000
     34720      2597  MEOH      HO2           -14.0526993462       32.1370651598       -8.5653803498  MEOH      1905            0.0000000000
     34721      2597  MEOH      H1A           -14.4167050136       31.6549636729       -6.4482391412  MEOH      1905            0.0000000000
     34722      2597  MEOH      H1B           -12.7901316948       30.8643402975       -6.3499102833  MEOH      1905            0.0000000000
     34723      2597  MEOH      H1C           -14.1121179730       30.1192194604       -7.3401847928  MEOH      1905            0.0000000000
     34724      2597  MEOH      LP1A          -13.4609038583       31.7904430715       -8.4170331781  MEOH      1905            0.0000000000
     34725      2597  MEOH      LP1B          -12.9325005658       31.9975103364       -8.0846746247  MEOH      1905            0.0000000000
     34726      2598  MEOH      C1             11.8851650244      -30.6348291866       17.2078401876  MEOH      1906            0.0000000000
     34727      2598  MEOH      DC1            11.8696176668      -30.6138379574       17.2002509316  MEOH      1906            0.0000000000
     34728      2598  MEOH      O1             12.5944781484      -30.9248810383       18.4105568203  MEOH      1906            0.0000000000
     34729      2598  MEOH      DO1            12.5744745556      -30.9103307815       18.4093746833  MEOH      1906            0.0000000000
     34730      2598  MEOH      HO1            12.1213657870      -30.5587781534       19.1741230395  MEOH      1906            0.0000000000
     34731      2598  MEOH      HO2            12.7994004412      -31.8721693504       18.3711650875  MEOH      1906            0.0000000000
     34732      2598  MEOH      H1A            12.5323495485      -30.9049901543       16.3461637727  MEOH      1906            0.0000000000
     34733      2598  MEOH      H1B            11.6383961798      -29.5529174582       17.1540521856  MEOH      1906            0.0000000000
     34734      2598  MEOH      H1C            10.9607425550      -31.2466922505       17.1344392955  MEOH      1906            0.0000000000
     34735      2598  MEOH      LP1A           12.4904679017      -31.2331984747       18.5394840360  MEOH      1906            0.0000000000
     34736      2598  MEOH      LP1B           12.8256273226      -30.6707295759       18.4774679066  MEOH      1906            0.0000000000
     34737      2599  MEOH      C1             14.6410738332       34.0755504897       -2.0949382281  MEOH      1907            0.0000000000
     34738      2599  MEOH      DC1            14.6429680296       34.1053438362       -2.1170404606  MEOH      1907            0.0000000000
     34739      2599  MEOH      O1             14.5015634908       35.4875748477       -2.2911705080  MEOH      1907            0.0000000000
     34740      2599  MEOH      DO1            14.5088023897       35.5223035414       -2.2888788583  MEOH      1907            0.0000000000
     34741      2599  MEOH      HO1            14.8572581709       35.6716697766       -3.1746241580  MEOH      1907            0.0000000000
     34742      2599  MEOH      HO2            13.5695454237       35.6807356750       -2.1042715551  MEOH      1907            0.0000000000
     34743      2599  MEOH      H1A            14.2053350044       33.7770934828       -1.1175048094  MEOH      1907            0.0000000000
     34744      2599  MEOH      H1B            15.7126485397       33.7822105851       -2.0943462478  MEOH      1907            0.0000000000
     34745      2599  MEOH      H1C            14.1053103991       33.5207250472       -2.8945926982  MEOH      1907            0.0000000000
     34746      2599  MEOH      LP1A           14.1892644130       35.5585326783       -2.4323592906  MEOH      1907            0.0000000000
     34747      2599  MEOH      LP1B           14.7858434175       35.6536092802       -2.1723534618  MEOH      1907            0.0000000000
     34748      2600  MEOH      C1             14.4974513483        3.3648240483      -32.7845280574  MEOH      1908            0.0000000000
     34749      2600  MEOH      DC1            14.4905274487        3.3675753707      -32.7705034891  MEOH      1908            0.0000000000
     34750      2600  MEOH      O1             14.8422818896        2.7306409461      -34.0160806296  MEOH      1908            0.0000000000
     34751      2600  MEOH      DO1            14.8430591530        2.7366687646      -33.9974315004  MEOH      1908            0.0000000000
     34752      2600  MEOH      HO1            14.3857503797        3.1664997671      -34.7526307423  MEOH      1908            0.0000000000
     34753      2600  MEOH      HO2            15.8080307220        2.6399299036      -34.0169173676  MEOH      1908            0.0000000000
     34754      2600  MEOH      H1A            14.8922460835        2.7483530367      -31.9488118323  MEOH      1908            0.0000000000
     34755      2600  MEOH      H1B            13.3942890390        3.4430174146      -32.6785105194  MEOH      1908            0.0000000000
     34756      2600  MEOH      H1C            14.9488803566        4.3789509368      -32.7389264676  MEOH      1908            0.0000000000
     34757      2600  MEOH      LP1A           15.1282612195        2.8800501719      -34.1517003409  MEOH      1908            0.0000000000
     34758      2600  MEOH      LP1B           14.6208929338        2.4675272076      -34.0813346784  MEOH      1908            0.0000000000
     34759      2601  MEOH      C1            -13.2601535866       -4.8159702984       26.4085121475  MEOH      1909            0.0000000000
     34760      2601  MEOH      DC1           -13.2528900381       -4.8272306925       26.4115431907  MEOH      1909            0.0000000000
     34761      2601  MEOH      O1            -12.4238112142       -3.7509417576       25.9489451563  MEOH      1909            0.0000000000
     34762      2601  MEOH      DO1           -12.3894031626       -3.7726774629       25.9679623660  MEOH      1909            0.0000000000
     34763      2601  MEOH      HO1           -12.6721227010       -3.5748449445       25.0279504126  MEOH      1909            0.0000000000
     34764      2601  MEOH      HO2           -12.5834284300       -3.0275692097       26.5751675630  MEOH      1909            0.0000000000
     34765      2601  MEOH      H1A           -13.2092298947       -4.8772142456       27.5166533654  MEOH      1909            0.0000000000
     34766      2601  MEOH      H1B           -12.9361818672       -5.7855464310       25.9734426719  MEOH      1909            0.0000000000
     34767      2601  MEOH      H1C           -14.3123279740       -4.6238687752       26.1079342650  MEOH      1909            0.0000000000
     34768      2601  MEOH      LP1A          -12.5742216401       -3.4424615648       26.0176232050  MEOH      1909            0.0000000000
     34769      2601  MEOH      LP1B          -12.1282696060       -3.8806959278       25.8135974072  MEOH      1909            0.0000000000
     34770      2602  MEOH      C1             30.2838588866      -35.7240615659       16.8771935321  MEOH      1910            0.0000000000
     34771      2602  MEOH      DC1            30.2906086941      -35.7464663891       16.8731486196  MEOH      1910            0.0000000000
     34772      2602  MEOH      O1             30.2693014911      -37.1240703565       17.1469518756  MEOH      1910            0.0000000000
     34773      2602  MEOH      DO1            30.2804955745      -37.1453811215       17.1411973784  MEOH      1910            0.0000000000
     34774      2602  MEOH      HO1            30.2738460660      -37.1974619722       18.1141607559  MEOH      1910            0.0000000000
     34775      2602  MEOH      HO2            29.5213796957      -37.4817956557       16.6434187602  MEOH      1910            0.0000000000
     34776      2602  MEOH      H1A            30.2635091705      -35.5386548080       15.7819624041  MEOH      1910            0.0000000000
     34777      2602  MEOH      H1B            31.2006047259      -35.2634478117       17.3034951104  MEOH      1910            0.0000000000
     34778      2602  MEOH      H1C            29.3928027129      -35.2495058459       17.3410219114  MEOH      1910            0.0000000000
     34779      2602  MEOH      LP1A           29.9392198798      -37.2389227861       17.1657946269  MEOH      1910            0.0000000000
     34780      2602  MEOH      LP1B           30.5968510667      -37.2464665672       17.1621322283  MEOH      1910            0.0000000000
     34781      2603  MEOH      C1            -29.1181308763       36.6981531299      -25.4569906234  MEOH      1911            0.0000000000
     34782      2603  MEOH      DC1           -29.1264612676       36.6971014172      -25.4733965999  MEOH      1911            0.0000000000
     34783      2603  MEOH      O1            -30.1113513997       36.5880721491      -26.4681280142  MEOH      1911            0.0000000000
     34784      2603  MEOH      DO1           -30.1088677276       36.5867170179      -26.4864940503  MEOH      1911            0.0000000000
     34785      2603  MEOH      HO1           -30.7802850028       35.9739636303      -26.1271022629  MEOH      1911            0.0000000000
     34786      2603  MEOH      HO2           -30.3562876191       37.4979421417      -26.6984383376  MEOH      1911            0.0000000000
     34787      2603  MEOH      H1A           -28.3236926839       37.4004668814      -25.7885692006  MEOH      1911            0.0000000000
     34788      2603  MEOH      H1B           -28.6572467299       35.7116162255      -25.2364192242  MEOH      1911            0.0000000000
     34789      2603  MEOH      H1C           -29.5885613836       37.0881815591      -24.5291469065  MEOH      1911            0.0000000000
     34790      2603  MEOH      LP1A          -30.3556446454       36.8346741185      -26.4233141908  MEOH      1911            0.0000000000
     34791      2603  MEOH      LP1B          -30.0284234600       36.3302440377      -26.6898206433  MEOH      1911            0.0000000000
     34792      2604  MEOH      C1            -16.5584861180       -9.1466758564        2.2024757579  MEOH      1912            0.0000000000
     34793      2604  MEOH      DC1           -16.5675218858       -9.1582319021        2.1868959047  MEOH      1912            0.0000000000
     34794      2604  MEOH      O1            -16.6511057648       -8.5120249348        0.9223289367  MEOH      1912            0.0000000000
     34795      2604  MEOH      DO1           -16.6564246581       -8.5154020665        0.9010713915  MEOH      1912            0.0000000000
     34796      2604  MEOH      HO1           -17.5773888765       -8.6066040424        0.6503833735  MEOH      1912            0.0000000000
     34797      2604  MEOH      HO2           -16.2903113362       -7.6221490165        1.0596177975  MEOH      1912            0.0000000000
     34798      2604  MEOH      H1A           -15.5380492626       -9.0279684431        2.6254866018  MEOH      1912            0.0000000000
     34799      2604  MEOH      H1B           -16.7908837517      -10.2288957957        2.1070171545  MEOH      1912            0.0000000000
     34800      2604  MEOH      H1C           -17.2685656389       -8.6708009580        2.9121596000  MEOH      1912            0.0000000000
     34801      2604  MEOH      LP1A          -16.7254578083       -8.1723475936        0.9622172496  MEOH      1912            0.0000000000
     34802      2604  MEOH      LP1B          -16.5810653191       -8.7429986316        0.6688620013  MEOH      1912            0.0000000000
     34803      2605  MEOH      C1             -7.6952535560       27.3680915304       -1.1615831200  MEOH      1913            0.0000000000
     34804      2605  MEOH      DC1            -7.6900065977       27.3661850249       -1.1608901552  MEOH      1913            0.0000000000
     34805      2605  MEOH      O1             -7.5115084117       26.0362951805       -0.6748136902  MEOH      1913            0.0000000000
     34806      2605  MEOH      DO1            -7.5066567572       26.0323284691       -0.6731660502  MEOH      1913            0.0000000000
     34807      2605  MEOH      HO1            -6.8932377079       26.0868132084        0.0709002411  MEOH      1913            0.0000000000
     34808      2605  MEOH      HO2            -8.4036434904       25.6777958038       -0.5464657327  MEOH      1913            0.0000000000
     34809      2605  MEOH      H1A            -8.3296587512       27.3435966496       -2.0733128218  MEOH      1913            0.0000000000
     34810      2605  MEOH      H1B            -6.7122567178       27.8185565388       -1.4167683366  MEOH      1913            0.0000000000
     34811      2605  MEOH      H1C            -8.1971582975       27.9913542980       -0.3908976111  MEOH      1913            0.0000000000
     34812      2605  MEOH      LP1A           -7.7522805413       25.9635115888       -0.4314388140  MEOH      1913            0.0000000000
     34813      2605  MEOH      LP1B           -7.2471720140       25.8821496700       -0.8447119848  MEOH      1913            0.0000000000
     34814      2606  MEOH      C1             24.8539378824      -10.6242546817       17.1243549542  MEOH      1914            0.0000000000
     34815      2606  MEOH      DC1            24.8502167105      -10.6508819698       17.1015128556  MEOH      1914            0.0000000000
     34816      2606  MEOH      O1             25.4707920774       -9.4887837543       17.7135308948  MEOH      1914            0.0000000000
     34817      2606  MEOH      DO1            25.4721263744       -9.5079844746       17.6911350486  MEOH      1914            0.0000000000
     34818      2606  MEOH      HO1            25.1157445908       -8.6951703177       17.2833925502  MEOH      1914            0.0000000000
     34819      2606  MEOH      HO2            25.3008529227       -9.5831408195       18.6638558020  MEOH      1914            0.0000000000
     34820      2606  MEOH      H1A            25.1821893675      -11.5316428337       17.6750079360  MEOH      1914            0.0000000000
     34821      2606  MEOH      H1B            25.1589252007      -10.6991176476       16.0586630321  MEOH      1914            0.0000000000
     34822      2606  MEOH      H1C            23.7497024689      -10.5377715455       17.2109910823  MEOH      1914            0.0000000000
     34823      2606  MEOH      LP1A           25.2856873751       -9.3824110340       17.9908774173  MEOH      1914            0.0000000000
     34824      2606  MEOH      LP1B           25.7659398449       -9.4106172954       17.5424233262  MEOH      1914            0.0000000000
     34825      2607  MEOH      C1             -9.5001303600       22.1353329595      -11.1630736981  MEOH      1915            0.0000000000
     34826      2607  MEOH      DC1            -9.4926441818       22.1368530182      -11.1725107558  MEOH      1915            0.0000000000
     34827      2607  MEOH      O1            -10.6431247167       22.6027452358      -11.8821111098  MEOH      1915            0.0000000000
     34828      2607  MEOH      DO1           -10.6381734320       22.5945209733      -11.8984173841  MEOH      1915            0.0000000000
     34829      2607  MEOH      HO1           -11.4059711461       22.4304364173      -11.3082862269  MEOH      1915            0.0000000000
     34830      2607  MEOH      HO2           -10.4323643840       23.5196656824      -12.1181979111  MEOH      1915            0.0000000000
     34831      2607  MEOH      H1A            -8.5760422142       22.3433118599      -11.7436999770  MEOH      1915            0.0000000000
     34832      2607  MEOH      H1B            -9.5739122689       21.0401159583      -10.9916766383  MEOH      1915            0.0000000000
     34833      2607  MEOH      H1C            -9.4377939472       22.6370072320      -10.1737516592  MEOH      1915            0.0000000000
     34834      2607  MEOH      LP1A          -10.6998943338       22.9405374064      -11.8101829503  MEOH      1915            0.0000000000
     34835      2607  MEOH      LP1B          -10.7710805200       22.3464521135      -12.0832109552  MEOH      1915            0.0000000000
     34836      2608  MEOH      C1             20.6093053445      -20.1252218664       24.3260168970  MEOH      1916            0.0000000000
     34837      2608  MEOH      DC1            20.6063330311      -20.1250555989       24.3228773522  MEOH      1916            0.0000000000
     34838      2608  MEOH      O1             19.4527448458      -19.3876515403       23.9023017459  MEOH      1916            0.0000000000
     34839      2608  MEOH      DO1            19.4545734758      -19.3995738462       23.8965761213  MEOH      1916            0.0000000000
     34840      2608  MEOH      HO1            19.7218270180      -18.5702131385       23.4547648828  MEOH      1916            0.0000000000
     34841      2608  MEOH      HO2            18.8485024804      -20.0192218498       23.4816949118  MEOH      1916            0.0000000000
     34842      2608  MEOH      H1A            20.2926501085      -21.0450968681       24.8625618104  MEOH      1916            0.0000000000
     34843      2608  MEOH      H1B            21.2491890432      -19.5188072321       25.0021316386  MEOH      1916            0.0000000000
     34844      2608  MEOH      H1C            21.2276342982      -20.4241917640       23.4527429965  MEOH      1916            0.0000000000
     34845      2608  MEOH      LP1A           19.3570052239      -19.4891637973       23.5813201476  MEOH      1916            0.0000000000
     34846      2608  MEOH      LP1B           19.3488161923      -19.1712794069       24.1570210716  MEOH      1916            0.0000000000
     34847      2609  MEOH      C1            -24.4348283731        2.9113632369      -31.4252151864  MEOH      1917            0.0000000000
     34848      2609  MEOH      DC1           -24.4526375001        2.8950165572      -31.4223211453  MEOH      1917            0.0000000000
     34849      2609  MEOH      O1            -25.3616526503        2.3441870785      -32.3488460763  MEOH      1917            0.0000000000
     34850      2609  MEOH      DO1           -25.3807315393        2.3389312633      -32.3436829504  MEOH      1917            0.0000000000
     34851      2609  MEOH      HO1           -25.5555679171        1.4423108298      -32.0489859398  MEOH      1917            0.0000000000
     34852      2609  MEOH      HO2           -26.0579089160        3.0083469480      -32.4713976229  MEOH      1917            0.0000000000
     34853      2609  MEOH      H1A           -24.0626921588        3.8823391440      -31.8164202817  MEOH      1917            0.0000000000
     34854      2609  MEOH      H1B           -23.5622505145        2.2441561443      -31.2585911302  MEOH      1917            0.0000000000
     34855      2609  MEOH      H1C           -24.9497905915        3.0959306444      -30.4582251203  MEOH      1917            0.0000000000
     34856      2609  MEOH      LP1A          -25.6893389814        2.4153252071      -32.2485413653  MEOH      1917            0.0000000000
     34857      2609  MEOH      LP1B          -25.1894974174        2.1875858588      -32.6102626668  MEOH      1917            0.0000000000
     34858      2610  MEOH      C1            -22.2356534394       30.9739536718       17.8272419458  MEOH      1918            0.0000000000
     34859      2610  MEOH      DC1           -22.2273797641       30.9688200955       17.8235489327  MEOH      1918            0.0000000000
     34860      2610  MEOH      O1            -23.5413719578       31.3500245717       18.2645863848  MEOH      1918            0.0000000000
     34861      2610  MEOH      DO1           -23.5320093219       31.3416732759       18.2538411913  MEOH      1918            0.0000000000
     34862      2610  MEOH      HO1           -23.4921786840       32.2221583353       18.6863241236  MEOH      1918            0.0000000000
     34863      2610  MEOH      HO2           -24.1322992262       31.2083412116       17.5085236955  MEOH      1918            0.0000000000
     34864      2610  MEOH      H1A           -22.2756790044       29.9441991904       17.4121218871  MEOH      1918            0.0000000000
     34865      2610  MEOH      H1B           -21.5239826945       30.9984827250       18.6800280130  MEOH      1918            0.0000000000
     34866      2610  MEOH      H1C           -21.8859252746       31.6685925333       17.0338391066  MEOH      1918            0.0000000000
     34867      2610  MEOH      LP1A          -23.7089047758       31.5202494212       18.0087421832  MEOH      1918            0.0000000000
     34868      2610  MEOH      LP1B          -23.5970448226       31.2330008184       18.5897109352  MEOH      1918            0.0000000000
     34869      2611  MEOH      C1             10.9967804056       15.5105712961      -10.8138359732  MEOH      1919            0.0000000000
     34870      2611  MEOH      DC1            11.0157156221       15.5169707511      -10.8253314179  MEOH      1919            0.0000000000
     34871      2611  MEOH      O1             10.2075869321       14.3425854740      -10.5881142201  MEOH      1919            0.0000000000
     34872      2611  MEOH      DO1            10.2201089937       14.3565574598      -10.5933830868  MEOH      1919            0.0000000000
     34873      2611  MEOH      HO1             9.4006635625       14.5924924336      -10.1113321030  MEOH      1919            0.0000000000
     34874      2611  MEOH      HO2            10.1349362122       13.8984794712      -11.4474114515  MEOH      1919            0.0000000000
     34875      2611  MEOH      H1A            11.9478888161       15.2115206461      -11.3040221645  MEOH      1919            0.0000000000
     34876      2611  MEOH      H1B            11.2333932437       16.0074539306       -9.8487230198  MEOH      1919            0.0000000000
     34877      2611  MEOH      H1C            10.4483822406       16.2188549553      -11.4710381573  MEOH      1919            0.0000000000
     34878      2611  MEOH      LP1A            9.9912641784       14.2902373675      -10.8582329754  MEOH      1919            0.0000000000
     34879      2611  MEOH      LP1B           10.2994666589       14.1926768437      -10.2854832264  MEOH      1919            0.0000000000
     34880      2612  MEOH      C1             18.7909925771      -12.6800236092       24.7086748824  MEOH      1920            0.0000000000
     34881      2612  MEOH      DC1            18.8069179187      -12.6938440240       24.7139176076  MEOH      1920            0.0000000000
     34882      2612  MEOH      O1             20.1458924971      -12.9662607294       25.0711883842  MEOH      1920            0.0000000000
     34883      2612  MEOH      DO1            20.1577511333      -12.9859827312       25.0762152027  MEOH      1920            0.0000000000
     34884      2612  MEOH      HO1            20.1803746696      -12.9601401143       26.0405559708  MEOH      1920            0.0000000000
     34885      2612  MEOH      HO2            20.4226911780      -13.7297332128       24.5407241922  MEOH      1920            0.0000000000
     34886      2612  MEOH      H1A            18.7307843624      -12.4280879143       23.6282932937  MEOH      1920            0.0000000000
     34887      2612  MEOH      H1B            18.4120283025      -11.8127289102       25.2904884125  MEOH      1920            0.0000000000
     34888      2612  MEOH      H1C            18.1444095531      -13.5614293750       24.9071069129  MEOH      1920            0.0000000000
     34889      2612  MEOH      LP1A           20.1914878381      -13.3120430707       25.1004396625  MEOH      1920            0.0000000000
     34890      2612  MEOH      LP1B           20.3297158395      -12.6691110824       25.0914631493  MEOH      1920            0.0000000000
     34891      2613  MEOH      C1             -9.2487086312      -19.0515844579      -11.9200934055  MEOH      1921            0.0000000000
     34892      2613  MEOH      DC1            -9.2429196054      -19.0491378268      -11.9042478293  MEOH      1921            0.0000000000
     34893      2613  MEOH      O1             -9.5247985859      -17.7990670286      -12.5422351843  MEOH      1921            0.0000000000
     34894      2613  MEOH      DO1            -9.5098615348      -17.8023991208      -12.5352750840  MEOH      1921            0.0000000000
     34895      2613  MEOH      HO1            -9.7201719931      -17.9910040364      -13.4727669767  MEOH      1921            0.0000000000
     34896      2613  MEOH      HO2           -10.2134145068      -17.3845942245      -11.9991694335  MEOH      1921            0.0000000000
     34897      2613  MEOH      H1A            -9.0041620833      -18.8874273879      -10.8488462616  MEOH      1921            0.0000000000
     34898      2613  MEOH      H1B            -8.3923441411      -19.5407000576      -12.4316858119  MEOH      1921            0.0000000000
     34899      2613  MEOH      H1C           -10.1408018908      -19.7096980283      -11.9934224380  MEOH      1921            0.0000000000
     34900      2613  MEOH      LP1A           -9.8657891418      -17.7247816618      -12.5156433613  MEOH      1921            0.0000000000
     34901      2613  MEOH      LP1B           -9.2284239140      -17.6576380769      -12.6633132809  MEOH      1921            0.0000000000
     34902      2614  MEOH      C1            -33.6876981192      -24.9677080592      -25.0872142382  MEOH      1922            0.0000000000
     34903      2614  MEOH      DC1           -33.6907689489      -24.9633052146      -25.0880067237  MEOH      1922            0.0000000000
     34904      2614  MEOH      O1            -32.5836593087      -24.4732274858      -25.8520243466  MEOH      1922            0.0000000000
     34905      2614  MEOH      DO1           -32.5934280558      -24.4635108914      -25.8608006033  MEOH      1922            0.0000000000
     34906      2614  MEOH      HO1           -31.9688122288      -24.0572477057      -25.2276655628  MEOH      1922            0.0000000000
     34907      2614  MEOH      HO2           -32.2729444341      -25.2331605118      -26.3686074119  MEOH      1922            0.0000000000
     34908      2614  MEOH      H1A           -34.4163881417      -25.4724559094      -25.7569615480  MEOH      1922            0.0000000000
     34909      2614  MEOH      H1B           -34.2019109710      -24.1372124799      -24.5578908618  MEOH      1922            0.0000000000
     34910      2614  MEOH      H1C           -33.3296445778      -25.7060582616      -24.3382431838  MEOH      1922            0.0000000000
     34911      2614  MEOH      LP1A          -32.3384500112      -24.7211254162      -25.8823396321  MEOH      1922            0.0000000000
     34912      2614  MEOH      LP1B          -32.6490789541      -24.1465452399      -25.9592576448  MEOH      1922            0.0000000000
     34913      2615  MEOH      C1             21.8133013525        9.4078555303        6.2694648347  MEOH      1923            0.0000000000
     34914      2615  MEOH      DC1            21.7997716820        9.4041724255        6.2733315962  MEOH      1923            0.0000000000
     34915      2615  MEOH      O1             22.9373489775        9.2751977977        7.1343573254  MEOH      1923            0.0000000000
     34916      2615  MEOH      DO1            22.9306216191        9.2727054669        7.1328314628  MEOH      1923            0.0000000000
     34917      2615  MEOH      HO1            23.3697513011        8.4312872116        6.9300459108  MEOH      1923            0.0000000000
     34918      2615  MEOH      HO2            23.4395529488       10.0975841526        7.0231284874  MEOH      1923            0.0000000000
     34919      2615  MEOH      H1A            21.2757106030       10.3524803724        6.4996844986  MEOH      1923            0.0000000000
     34920      2615  MEOH      H1B            21.1268766169        8.5433916372        6.3953388245  MEOH      1923            0.0000000000
     34921      2615  MEOH      H1C            22.1612847980        9.4375644397        5.2147867308  MEOH      1923            0.0000000000
     34922      2615  MEOH      LP1A           23.2197385901        9.4199651155        6.9867140715  MEOH      1923            0.0000000000
     34923      2615  MEOH      LP1B           22.8414072470        9.1182791361        7.4321352930  MEOH      1923            0.0000000000
     34924      2616  MEOH      C1             22.3989740967      -30.2452889257      -16.9483427261  MEOH      1924            0.0000000000
     34925      2616  MEOH      DC1            22.3717186241      -30.2479512347      -16.9489430148  MEOH      1924            0.0000000000
     34926      2616  MEOH      O1             21.0377701403      -29.9242176632      -17.2470778593  MEOH      1924            0.0000000000
     34927      2616  MEOH      DO1            21.0083395881      -29.9273468178      -17.2391384687  MEOH      1924            0.0000000000
     34928      2616  MEOH      HO1            21.1054508119      -29.1684506399      -17.8513423160  MEOH      1924            0.0000000000
     34929      2616  MEOH      HO2            20.6385171660      -30.7524790341      -17.5560765066  MEOH      1924            0.0000000000
     34930      2616  MEOH      H1A            22.4634787673      -31.1014152602      -16.2432130585  MEOH      1924            0.0000000000
     34931      2616  MEOH      H1B            22.8954349202      -29.3720712695      -16.4736443204  MEOH      1924            0.0000000000
     34932      2616  MEOH      H1C            22.9518223920      -30.4965070667      -17.8787024458  MEOH      1924            0.0000000000
     34933      2616  MEOH      LP1A           20.9298289830      -30.1073510322      -17.5251261927  MEOH      1924            0.0000000000
     34934      2616  MEOH      LP1B           20.9143222372      -29.6959110158      -17.0122658282  MEOH      1924            0.0000000000
     34935      2617  MEOH      C1            -23.5281756367       21.2007568151      -34.3845101489  MEOH      1925            0.0000000000
     34936      2617  MEOH      DC1           -23.5355814864       21.1958940788      -34.3776580389  MEOH      1925            0.0000000000
     34937      2617  MEOH      O1            -23.8049846297       21.5123063072      -33.0158108380  MEOH      1925            0.0000000000
     34938      2617  MEOH      DO1           -23.8134658152       21.5009756731      -33.0114456912  MEOH      1925            0.0000000000
     34939      2617  MEOH      HO1           -24.2901740553       22.3514200751      -32.9786718325  MEOH      1925            0.0000000000
     34940      2617  MEOH      HO2           -24.1225624235       20.6985348673      -32.5941232881  MEOH      1925            0.0000000000
     34941      2617  MEOH      H1A           -22.8075943573       20.3567640976      -34.4370450202  MEOH      1925            0.0000000000
     34942      2617  MEOH      H1B           -23.0735552145       22.0768477623      -34.8945159581  MEOH      1925            0.0000000000
     34943      2617  MEOH      H1C           -24.4654154056       20.9137372948      -34.9075038498  MEOH      1925            0.0000000000
     34944      2617  MEOH      LP1A          -24.1100142455       21.3699350140      -32.9199601813  MEOH      1925            0.0000000000
     34945      2617  MEOH      LP1B          -23.5409650704       21.6971717432      -32.8793614231  MEOH      1925            0.0000000000
     34946      2618  MEOH      C1            -28.8829685987       -9.2757173831       18.7810082994  MEOH      1926            0.0000000000
     34947      2618  MEOH      DC1           -28.8888514936       -9.2662850930       18.7733453636  MEOH      1926            0.0000000000
     34948      2618  MEOH      O1            -29.9378545650       -8.4122392373       18.3550569114  MEOH      1926            0.0000000000
     34949      2618  MEOH      DO1           -29.9411043831       -8.4072847204       18.3504567176  MEOH      1926            0.0000000000
     34950      2618  MEOH      HO1           -30.1212630037       -7.8062062365       19.0898938637  MEOH      1926            0.0000000000
     34951      2618  MEOH      HO2           -29.6780354299       -8.0773256746       17.4825737175  MEOH      1926            0.0000000000
     34952      2618  MEOH      H1A           -28.7291170355      -10.0859839973       18.0366167954  MEOH      1926            0.0000000000
     34953      2618  MEOH      H1B           -29.1349502966       -9.7291928777       19.7634472032  MEOH      1926            0.0000000000
     34954      2618  MEOH      H1C           -27.9340928324       -8.7059074376       18.8773016413  MEOH      1926            0.0000000000
     34955      2618  MEOH      LP1A          -29.8049238688       -8.1308221266       18.1949511967  MEOH      1926            0.0000000000
     34956      2618  MEOH      LP1B          -30.2479311498       -8.5542938590       18.4336253276  MEOH      1926            0.0000000000
     34957      2619  MEOH      C1             10.5677184037       20.9210236043      -17.6973696147  MEOH      1927            0.0000000000
     34958      2619  MEOH      DC1            10.5687655278       20.9117317695      -17.7085503881  MEOH      1927            0.0000000000
     34959      2619  MEOH      O1              9.1620838105       20.6948873651      -17.6572492826  MEOH      1927            0.0000000000
     34960      2619  MEOH      DO1             9.1630402043       20.6942001426      -17.6692668696  MEOH      1927            0.0000000000
     34961      2619  MEOH      HO1             8.7576923100       21.5013687426      -17.3009414073  MEOH      1927            0.0000000000
     34962      2619  MEOH      HO2             8.9224973561       20.3601091428      -18.5355555352  MEOH      1927            0.0000000000
     34963      2619  MEOH      H1A            11.1038131801       19.9815452862      -17.9509517141  MEOH      1927            0.0000000000
     34964      2619  MEOH      H1B            10.9190939939       21.2847539546      -16.7081495043  MEOH      1927            0.0000000000
     34965      2619  MEOH      H1C            10.8016899638       21.6893130659      -18.4650346547  MEOH      1927            0.0000000000
     34966      2619  MEOH      LP1A            9.0166431153       20.7911404624      -17.9607000124  MEOH      1927            0.0000000000
     34967      2619  MEOH      LP1B            9.0728137677       20.5500973180      -17.3513625361  MEOH      1927            0.0000000000
     34968      2620  MEOH      C1              6.2601146046        1.9870331120      -17.2059217848  MEOH      1928            0.0000000000
     34969      2620  MEOH      DC1             6.2768643344        1.9859579957      -17.2202138104  MEOH      1928            0.0000000000
     34970      2620  MEOH      O1              7.2586618951        1.8342431475      -18.2155096075  MEOH      1928            0.0000000000
     34971      2620  MEOH      DO1             7.2684260739        1.8381682405      -18.2259277073  MEOH      1928            0.0000000000
     34972      2620  MEOH      HO1             6.9031436585        2.2276153253      -19.0277688727  MEOH      1928            0.0000000000
     34973      2620  MEOH      HO2             8.1021987930        2.1037189651      -17.8196203734  MEOH      1928            0.0000000000
     34974      2620  MEOH      H1A             6.4980203121        1.3484935660      -16.3284315436  MEOH      1928            0.0000000000
     34975      2620  MEOH      H1B             5.2715147232        1.6830051256      -17.6115795939  MEOH      1928            0.0000000000
     34976      2620  MEOH      H1C             6.2044509529        3.0425872468      -16.8638281890  MEOH      1928            0.0000000000
     34977      2620  MEOH      LP1A            7.4751656060        2.1092268360      -18.2123293263  MEOH      1928            0.0000000000
     34978      2620  MEOH      LP1B            7.2164030452        1.5284029022      -18.3803608556  MEOH      1928            0.0000000000
     34979      2621  MEOH      C1            -16.5189352711       29.3073410380       30.7979180178  MEOH      1929            0.0000000000
     34980      2621  MEOH      DC1           -16.5153399232       29.3045767986       30.7992769248  MEOH      1929            0.0000000000
     34981      2621  MEOH      O1            -17.7577933992       29.8519158085       30.3389510731  MEOH      1929            0.0000000000
     34982      2621  MEOH      DO1           -17.7518815768       29.8476477378       30.3393404637  MEOH      1929            0.0000000000
     34983      2621  MEOH      HO1           -18.1125031007       30.4375445348       31.0260609793  MEOH      1929            0.0000000000
     34984      2621  MEOH      HO2           -17.5749277214       30.2168454649       29.4590155699  MEOH      1929            0.0000000000
     34985      2621  MEOH      H1A           -16.1272785626       28.6000150959       30.0359363679  MEOH      1929            0.0000000000
     34986      2621  MEOH      H1B           -16.6696573917       28.7631657140       31.7547236716  MEOH      1929            0.0000000000
     34987      2621  MEOH      H1C           -15.7753626527       30.1197242510       30.9443908053  MEOH      1929            0.0000000000
     34988      2621  MEOH      LP1A          -17.7000560973       30.1485011393       30.1623058198  MEOH      1929            0.0000000000
     34989      2621  MEOH      LP1B          -18.0220180157       29.6407307173       30.4288744253  MEOH      1929            0.0000000000
     34990      2622  MEOH      C1             14.5227358703      -35.8965521352       20.4521399011  MEOH      1930            0.0000000000
     34991      2622  MEOH      DC1            14.5114748521      -35.8974990791       20.4636288602  MEOH      1930            0.0000000000
     34992      2622  MEOH      O1             14.9122217307      -36.7190764972       21.5513731994  MEOH      1930            0.0000000000
     34993      2622  MEOH      DO1            14.9019666016      -36.7209572055       21.5613872126  MEOH      1930            0.0000000000
     34994      2622  MEOH      HO1            14.5801269329      -36.3280759610       22.3746177722  MEOH      1930            0.0000000000
     34995      2622  MEOH      HO2            14.7464254489      -37.6376735742       21.2875721321  MEOH      1930            0.0000000000
     34996      2622  MEOH      H1A            15.1347104839      -36.1598248300       19.5630417285  MEOH      1930            0.0000000000
     34997      2622  MEOH      H1B            14.6721590404      -34.8257134042       20.7076748889  MEOH      1930            0.0000000000
     34998      2622  MEOH      H1C            13.4691725880      -36.0881998833       20.1561727555  MEOH      1930            0.0000000000
     34999      2622  MEOH      LP1A           14.6691604368      -36.9640969882       21.6095639752  MEOH      1930            0.0000000000
     35000      2622  MEOH      LP1B           15.2258732433      -36.6192422002       21.6703515243  MEOH      1930            0.0000000000
     35001      2623  MEOH      C1             -6.8214270725        4.6246075494      -32.8859506218  MEOH      1931            0.0000000000
     35002      2623  MEOH      DC1            -6.8114277059        4.6210987356      -32.8743167160  MEOH      1931            0.0000000000
     35003      2623  MEOH      O1             -5.4629034596        4.7315874205      -32.4547657275  MEOH      1931            0.0000000000
     35004      2623  MEOH      DO1            -5.4533066145        4.7357222692      -32.4383462127  MEOH      1931            0.0000000000
     35005      2623  MEOH      HO1            -4.9462584672        4.2734940055      -33.1360354062  MEOH      1931            0.0000000000
     35006      2623  MEOH      HO2            -5.3142511480        5.6773449434      -32.2987362457  MEOH      1931            0.0000000000
     35007      2623  MEOH      H1A            -7.4957275485        5.1182979653      -32.1538921245  MEOH      1931            0.0000000000
     35008      2623  MEOH      H1B            -7.1199442297        3.5577771434      -32.9701016307  MEOH      1931            0.0000000000
     35009      2623  MEOH      H1C            -6.9527575365        5.1262294228      -33.8685231664  MEOH      1931            0.0000000000
     35010      2623  MEOH      LP1A           -5.3202202965        5.0254493518      -32.5804107844  MEOH      1931            0.0000000000
     35011      2623  MEOH      LP1B           -5.3814352595        4.4614883707      -32.2476197991  MEOH      1931            0.0000000000
     35012      2624  MEOH      C1             35.7094176883       31.1298895965       -1.8572812360  MEOH      1932            0.0000000000
     35013      2624  MEOH      DC1            35.7107134692       31.1321705821       -1.8450603847  MEOH      1932            0.0000000000
     35014      2624  MEOH      O1             35.9607854114       31.4846227401       -3.2162119765  MEOH      1932            0.0000000000
     35015      2624  MEOH      DO1            35.9623204983       31.4864917946       -3.2083851909  MEOH      1932            0.0000000000
     35016      2624  MEOH      HO1            35.6807811915       30.7321426285       -3.7605200871  MEOH      1932            0.0000000000
     35017      2624  MEOH      HO2            35.5274717425       32.3429282847       -3.3444728689  MEOH      1932            0.0000000000
     35018      2624  MEOH      H1A            36.0065374891       31.9717520580       -1.1959882444  MEOH      1932            0.0000000000
     35019      2624  MEOH      H1B            36.2910301662       30.2247307216       -1.5802697980  MEOH      1932            0.0000000000
     35020      2624  MEOH      H1C            34.6264665125       30.9197533106       -1.7254461361  MEOH      1932            0.0000000000
     35021      2624  MEOH      LP1A           35.6820278424       31.6479416754       -3.3508267717  MEOH      1932            0.0000000000
     35022      2624  MEOH      LP1B           36.2858004162       31.3910028205       -3.3062150725  MEOH      1932            0.0000000000
     35023      2625  MEOH      C1              2.0482726442       -9.2664062526       12.8401330847  MEOH      1933            0.0000000000
     35024      2625  MEOH      DC1             2.0481675577       -9.2717548367       12.8343063721  MEOH      1933            0.0000000000
     35025      2625  MEOH      O1              2.6474786980       -9.7143994287       14.0578833529  MEOH      1933            0.0000000000
     35026      2625  MEOH      DO1             2.6505444981       -9.7237770312       14.0550480222  MEOH      1933            0.0000000000
     35027      2625  MEOH      HO1             2.7070382521       -8.9361036802       14.6337378388  MEOH      1933            0.0000000000
     35028      2625  MEOH      HO2             2.1151330683      -10.4746695860       14.3398362186  MEOH      1933            0.0000000000
     35029      2625  MEOH      H1A             2.0824147651      -10.0622950353       12.0657195249  MEOH      1933            0.0000000000
     35030      2625  MEOH      H1B             2.5823847793       -8.3634156496       12.4745469828  MEOH      1933            0.0000000000
     35031      2625  MEOH      H1C             0.9835170145       -9.0107074621       13.0278418457  MEOH      1933            0.0000000000
     35032      2625  MEOH      LP1A            2.4000730455       -9.8245831058       14.2795813467  MEOH      1933            0.0000000000
     35033      2625  MEOH      LP1B            2.9959297231       -9.6899058491       14.0359300463  MEOH      1933            0.0000000000
     35034      2626  MEOH      C1            -20.2893755318       19.1856933021      -10.2194282818  MEOH      1934            0.0000000000
     35035      2626  MEOH      DC1           -20.2962083650       19.1805770189      -10.2146632011  MEOH      1934            0.0000000000
     35036      2626  MEOH      O1            -21.4989242411       19.6886865723      -10.7785148570  MEOH      1934            0.0000000000
     35037      2626  MEOH      DO1           -21.5005225170       19.6936246107      -10.7816490900  MEOH      1934            0.0000000000
     35038      2626  MEOH      HO1           -22.2042482719       19.5556937381      -10.1260342684  MEOH      1934            0.0000000000
     35039      2626  MEOH      HO2           -21.2939229634       20.5691301330      -11.1302158842  MEOH      1934            0.0000000000
     35040      2626  MEOH      H1A           -19.5050089617       19.1914671136      -11.0062298763  MEOH      1934            0.0000000000
     35041      2626  MEOH      H1B           -20.4287864306       18.1375438154       -9.8784469678  MEOH      1934            0.0000000000
     35042      2626  MEOH      H1C           -19.9530569139       19.8237031468       -9.3743518205  MEOH      1934            0.0000000000
     35043      2626  MEOH      LP1A          -21.5343187354       20.0282470467      -10.7014051040  MEOH      1934            0.0000000000
     35044      2626  MEOH      LP1B          -21.6612053861       19.4366277033      -10.9591558174  MEOH      1934            0.0000000000
     35045      2627  MEOH      C1            -30.5288508086       21.1074833508      -25.5800391871  MEOH      1935            0.0000000000
     35046      2627  MEOH      DC1           -30.5139565950       21.1004902786      -25.5814332967  MEOH      1935            0.0000000000
     35047      2627  MEOH      O1            -30.7343973233       19.9058122249      -24.8356292690  MEOH      1935            0.0000000000
     35048      2627  MEOH      DO1           -30.7190148737       19.9017232130      -24.8280793276  MEOH      1935            0.0000000000
     35049      2627  MEOH      HO1           -30.8350533223       19.1849168752      -25.4767831236  MEOH      1935            0.0000000000
     35050      2627  MEOH      HO2           -30.0649344210       19.8908821165      -24.1338483101  MEOH      1935            0.0000000000
     35051      2627  MEOH      H1A           -30.6730430228       21.9891071261      -24.9195324680  MEOH      1935            0.0000000000
     35052      2627  MEOH      H1B           -31.2713081360       21.1679936253      -26.4043065128  MEOH      1935            0.0000000000
     35053      2627  MEOH      H1C           -29.4974591411       21.1392400673      -25.9917960804  MEOH      1935            0.0000000000
     35054      2627  MEOH      LP1A          -30.4265181060       19.7567223584      -24.7615846929  MEOH      1935            0.0000000000
     35055      2627  MEOH      LP1B          -31.0759917770       19.8594360030      -24.7751108809  MEOH      1935            0.0000000000
     35056      2628  MEOH      C1            -27.6340843610       25.2430929417      -17.3641493592  MEOH      1936            0.0000000000
     35057      2628  MEOH      DC1           -27.6295240039       25.2475124978      -17.3759098602  MEOH      1936            0.0000000000
     35058      2628  MEOH      O1            -28.6862404633       26.0465826967      -17.9014074958  MEOH      1936            0.0000000000
     35059      2628  MEOH      DO1           -28.6895171523       26.0414969577      -17.9103805614  MEOH      1936            0.0000000000
     35060      2628  MEOH      HO1           -29.3628214649       26.1133958544      -17.2095446841  MEOH      1936            0.0000000000
     35061      2628  MEOH      HO2           -28.2601105349       26.8442651860      -18.2521437656  MEOH      1936            0.0000000000
     35062      2628  MEOH      H1A           -26.8195715245       25.1349997566      -18.1119499369  MEOH      1936            0.0000000000
     35063      2628  MEOH      H1B           -28.0210147050       24.2287883529      -17.1279458232  MEOH      1936            0.0000000000
     35064      2628  MEOH      H1C           -27.2207103102       25.7066975822      -16.4430013627  MEOH      1936            0.0000000000
     35065      2628  MEOH      LP1A          -28.6250104999       26.3845659201      -17.8341896983  MEOH      1936            0.0000000000
     35066      2628  MEOH      LP1B          -28.9179355279       25.8443299868      -18.0684740644  MEOH      1936            0.0000000000
     35067      2629  MEOH      C1            -10.7534737686      -16.2156230875       32.5886509167  MEOH      1937            0.0000000000
     35068      2629  MEOH      DC1           -10.7418425305      -16.2147076206       32.5938803799  MEOH      1937            0.0000000000
     35069      2629  MEOH      O1            -11.3832725791      -15.0021963987       32.1789585592  MEOH      1937            0.0000000000
     35070      2629  MEOH      DO1           -11.3789103991      -15.0051201729       32.1784758660  MEOH      1937            0.0000000000
     35071      2629  MEOH      HO1           -11.8302158151      -14.6290404825       32.9547783880  MEOH      1937            0.0000000000
     35072      2629  MEOH      HO2           -10.6869622487      -14.4891905509       31.7397810052  MEOH      1937            0.0000000000
     35073      2629  MEOH      H1A           -10.2853211153      -16.7177612031       31.7151456748  MEOH      1937            0.0000000000
     35074      2629  MEOH      H1B           -11.4959411224      -16.9043883348       33.0454502853  MEOH      1937            0.0000000000
     35075      2629  MEOH      H1C            -9.9360328576      -15.9822701113       33.3039534721  MEOH      1937            0.0000000000
     35076      2629  MEOH      LP1A          -11.1615675603      -14.7338885751       32.2158068490  MEOH      1937            0.0000000000
     35077      2629  MEOH      LP1B          -11.7066783726      -15.0685029010       32.0627168264  MEOH      1937            0.0000000000
     35078      2630  MEOH      C1             21.7104967402       18.9254605532       -6.9096017724  MEOH      1938            0.0000000000
     35079      2630  MEOH      DC1            21.7093043394       18.9264704783       -6.9058084163  MEOH      1938            0.0000000000
     35080      2630  MEOH      O1             21.2200915401       17.7199218658       -7.5003806618  MEOH      1938            0.0000000000
     35081      2630  MEOH      DO1            21.2187639875       17.7242348153       -7.5035993768  MEOH      1938            0.0000000000
     35082      2630  MEOH      HO1            21.5431645757       16.9712996891       -6.9749392757  MEOH      1938            0.0000000000
     35083      2630  MEOH      HO2            20.2647336411       17.8481525698       -7.6087696474  MEOH      1938            0.0000000000
     35084      2630  MEOH      H1A            21.4120928976       19.7889362306       -7.5418089388  MEOH      1938            0.0000000000
     35085      2630  MEOH      H1B            22.8190589476       18.8975587082       -6.8415406100  MEOH      1938            0.0000000000
     35086      2630  MEOH      H1C            21.2761066269       19.0569293820       -5.8955296955  MEOH      1938            0.0000000000
     35087      2630  MEOH      LP1A           20.9077299659       17.6387085352       -7.3649751895  MEOH      1938            0.0000000000
     35088      2630  MEOH      LP1B           21.4449842694       17.6053386192       -7.7428552788  MEOH      1938            0.0000000000
     35089      2631  MEOH      C1             11.9949100919       36.1069953953        3.2602560267  MEOH      1939            0.0000000000
     35090      2631  MEOH      DC1            12.0078369334       36.1161146478        3.2617107197  MEOH      1939            0.0000000000
     35091      2631  MEOH      O1             12.4527882343       36.5367687115        1.9731099500  MEOH      1939            0.0000000000
     35092      2631  MEOH      DO1            12.4576356173       36.5408556023        1.9676111913  MEOH      1939            0.0000000000
     35093      2631  MEOH      HO1            12.5550698366       37.5009697953        2.0005825756  MEOH      1939            0.0000000000
     35094      2631  MEOH      HO2            13.1930641785       35.9552467268        1.7391789606  MEOH      1939            0.0000000000
     35095      2631  MEOH      H1A            11.6425535988       35.0546316299        3.2083290865  MEOH      1939            0.0000000000
     35096      2631  MEOH      H1B            11.1772863515       36.7673905708        3.6203818841  MEOH      1939            0.0000000000
     35097      2631  MEOH      H1C            12.8274124460       36.1452419684        3.9949655140  MEOH      1939            0.0000000000
     35098      2631  MEOH      LP1A           12.8025875075       36.5313834904        1.9625521131  MEOH      1939            0.0000000000
     35099      2631  MEOH      LP1B           12.1794423376       36.6031197380        1.7648323419  MEOH      1939            0.0000000000
     35100      2632  MEOH      C1            -32.9790689136        2.2666218617      -35.4340839210  MEOH      1940            0.0000000000
     35101      2632  MEOH      DC1           -32.9805071743        2.2549937536      -35.4406038963  MEOH      1940            0.0000000000
     35102      2632  MEOH      O1            -32.0461293446        1.6614169380      -36.3278277059  MEOH      1940            0.0000000000
     35103      2632  MEOH      DO1           -32.0462634439        1.6530328370      -36.3332006461  MEOH      1940            0.0000000000
     35104      2632  MEOH      HO1           -31.6515814188        2.3905681858      -36.8313854420  MEOH      1940            0.0000000000
     35105      2632  MEOH      HO2           -31.4776169514        1.1039845934      -35.7737854331  MEOH      1940            0.0000000000
     35106      2632  MEOH      H1A           -33.5006087925        1.4722242686      -34.8585410306  MEOH      1940            0.0000000000
     35107      2632  MEOH      H1B           -33.7379673052        2.8603668505      -35.9871310449  MEOH      1940            0.0000000000
     35108      2632  MEOH      H1C           -32.4396658058        2.9423892466      -34.7364423732  MEOH      1940            0.0000000000
     35109      2632  MEOH      LP1A          -31.7330184195        1.6343977999      -36.1737773416  MEOH      1940            0.0000000000
     35110      2632  MEOH      LP1B          -32.2054105002        1.5765290274      -36.6277002723  MEOH      1940            0.0000000000
     35111      2633  MEOH      C1            -31.7804737077       22.6508821770      -22.3807008478  MEOH      1941            0.0000000000
     35112      2633  MEOH      DC1           -31.7845051160       22.6359587330      -22.3793749119  MEOH      1941            0.0000000000
     35113      2633  MEOH      O1            -31.6114541672       23.7409643338      -23.2929751516  MEOH      1941            0.0000000000
     35114      2633  MEOH      DO1           -31.6159646891       23.7208537520      -23.2995982156  MEOH      1941            0.0000000000
     35115      2633  MEOH      HO1           -30.7204769622       24.1117392764      -23.1950692677  MEOH      1941            0.0000000000
     35116      2633  MEOH      HO2           -31.9719883073       23.4629504754      -24.1494933534  MEOH      1941            0.0000000000
     35117      2633  MEOH      H1A           -32.8627038509       22.4132415944      -22.2993013925  MEOH      1941            0.0000000000
     35118      2633  MEOH      H1B           -31.4092119270       22.9407790352      -21.3744973387  MEOH      1941            0.0000000000
     35119      2633  MEOH      H1C           -31.2284740936       21.7537489808      -22.7339280493  MEOH      1941            0.0000000000
     35120      2633  MEOH      LP1A          -31.4908203110       23.6228697703      -23.5995712162  MEOH      1941            0.0000000000
     35121      2633  MEOH      LP1B          -31.7145292851       24.0398292364      -23.1427909645  MEOH      1941            0.0000000000
     35122      2634  MEOH      C1            -23.8304525990      -19.6283456853       -3.8706230077  MEOH      1942            0.0000000000
     35123      2634  MEOH      DC1           -23.8322013941      -19.6286968930       -3.8652584846  MEOH      1942            0.0000000000
     35124      2634  MEOH      O1            -22.4388840593      -19.5705517345       -4.1876148468  MEOH      1942            0.0000000000
     35125      2634  MEOH      DO1           -22.4399642794      -19.5835308353       -4.1791978007  MEOH      1942            0.0000000000
     35126      2634  MEOH      HO1           -21.9347870233      -19.5796187224       -3.3589388136  MEOH      1942            0.0000000000
     35127      2634  MEOH      HO2           -22.2856687736      -20.2406040309       -4.8720525700  MEOH      1942            0.0000000000
     35128      2634  MEOH      H1A           -24.4223472411      -19.4561768515       -4.7949279500  MEOH      1942            0.0000000000
     35129      2634  MEOH      H1B           -24.0849825577      -18.8401423595       -3.1301697564  MEOH      1942            0.0000000000
     35130      2634  MEOH      H1C           -24.0910352381      -20.6262981896       -3.4576962716  MEOH      1942            0.0000000000
     35131      2634  MEOH      LP1A          -22.3122793857      -19.8940576161       -4.2302200243  MEOH      1942            0.0000000000
     35132      2634  MEOH      LP1B          -22.3348053243      -19.2370909174       -4.2093289073  MEOH      1942            0.0000000000
     35133      2635  MEOH      C1            -16.2021648086       23.2994031261      -26.4289287631  MEOH      1943            0.0000000000
     35134      2635  MEOH      DC1           -16.1940469171       23.2982874822      -26.4351962873  MEOH      1943            0.0000000000
     35135      2635  MEOH      O1            -15.4998867139       23.4177583213      -27.6721817583  MEOH      1943            0.0000000000
     35136      2635  MEOH      DO1           -15.4884470279       23.4234276250      -27.6843204697  MEOH      1943            0.0000000000
     35137      2635  MEOH      HO1           -14.6847162761       22.9032030523      -27.5643391302  MEOH      1943            0.0000000000
     35138      2635  MEOH      HO2           -16.1374444419       23.1751741544      -28.3617998165  MEOH      1943            0.0000000000
     35139      2635  MEOH      H1A           -17.1688750763       23.8462786081      -26.4557516502  MEOH      1943            0.0000000000
     35140      2635  MEOH      H1B           -15.5972199139       23.7334677736      -25.6043376180  MEOH      1943            0.0000000000
     35141      2635  MEOH      H1C           -16.4284573102       22.2313023494      -26.2233237180  MEOH      1943            0.0000000000
     35142      2635  MEOH      LP1A          -15.5995707538       23.1631609119      -27.8906840497  MEOH      1943            0.0000000000
     35143      2635  MEOH      LP1B          -15.2912906346       23.6987277768      -27.6655605256  MEOH      1943            0.0000000000
     35144      2636  MEOH      C1             34.4344446652        2.4610435845        6.0298313478  MEOH      1944            0.0000000000
     35145      2636  MEOH      DC1            34.4415698746        2.4585994396        6.0233626181  MEOH      1944            0.0000000000
     35146      2636  MEOH      O1             34.7963565601        3.1493938027        4.8293384818  MEOH      1944            0.0000000000
     35147      2636  MEOH      DO1            34.8065146915        3.1413649065        4.8213065433  MEOH      1944            0.0000000000
     35148      2636  MEOH      HO1            33.9982268448        3.1829803026        4.2791013461  MEOH      1944            0.0000000000
     35149      2636  MEOH      HO2            35.1930542327        3.9845416839        5.1226965786  MEOH      1944            0.0000000000
     35150      2636  MEOH      H1A            35.3094915208        2.4163658332        6.7129257037  MEOH      1944            0.0000000000
     35151      2636  MEOH      H1B            34.0992877437        1.4274386575        5.7982029926  MEOH      1944            0.0000000000
     35152      2636  MEOH      H1C            33.6103329314        3.0004898257        6.5437949687  MEOH      1944            0.0000000000
     35153      2636  MEOH      LP1A           34.7483309280        3.4937294459        4.8696684142  MEOH      1944            0.0000000000
     35154      2636  MEOH      LP1B           34.9156736339        2.9214979949        4.5920055160  MEOH      1944            0.0000000000
     35155      2637  MEOH      C1             -9.5546593407       19.1108284388        8.4565758665  MEOH      1945            0.0000000000
     35156      2637  MEOH      DC1            -9.5562407494       19.1163869791        8.4558281429  MEOH      1945            0.0000000000
     35157      2637  MEOH      O1            -10.3305427832       20.0873521746        9.1583192852  MEOH      1945            0.0000000000
     35158      2637  MEOH      DO1           -10.3231963449       20.0954253164        9.1664666360  MEOH      1945            0.0000000000
     35159      2637  MEOH      HO1           -10.4371152517       20.8435293034        8.5602068721  MEOH      1945            0.0000000000
     35160      2637  MEOH      HO2           -11.1233010165       19.6171247665        9.4605122181  MEOH      1945            0.0000000000
     35161      2637  MEOH      H1A            -9.4130701023       18.2152854992        9.0986633462  MEOH      1945            0.0000000000
     35162      2637  MEOH      H1B            -8.5558148775       19.5232362868        8.1986020206  MEOH      1945            0.0000000000
     35163      2637  MEOH      H1C           -10.0789555933       18.8060915958        7.5256785053  MEOH      1945            0.0000000000
     35164      2637  MEOH      LP1A          -10.6715723850       20.0321994162        9.1021322412  MEOH      1945            0.0000000000
     35165      2637  MEOH      LP1B          -10.1198763625       20.2988890959        9.3409987590  MEOH      1945            0.0000000000
     35166      2638  MEOH      C1            -10.3432881823      -32.2119349933      -13.1885059953  MEOH      1946            0.0000000000
     35167      2638  MEOH      DC1           -10.3373311182      -32.2100047927      -13.1837766514  MEOH      1946            0.0000000000
     35168      2638  MEOH      O1            -11.5036548035      -32.8245710854      -12.6227589017  MEOH      1946            0.0000000000
     35169      2638  MEOH      DO1           -11.5050116423      -32.8087185359      -12.6127476364  MEOH      1946            0.0000000000
     35170      2638  MEOH      HO1           -12.2499808357      -32.5687571596      -13.1870785708  MEOH      1946            0.0000000000
     35171      2638  MEOH      HO2           -11.2941086105      -33.7708192062      -12.5826978467  MEOH      1946            0.0000000000
     35172      2638  MEOH      H1A            -9.4376660975      -32.5384664703      -12.6339369428  MEOH      1946            0.0000000000
     35173      2638  MEOH      H1B           -10.4417080832      -31.1067092533      -13.1327333482  MEOH      1946            0.0000000000
     35174      2638  MEOH      H1C           -10.2137115054      -32.5201284245      -14.2480095083  MEOH      1946            0.0000000000
     35175      2638  MEOH      LP1A          -11.5479333865      -33.1444823447      -12.7576521679  MEOH      1946            0.0000000000
     35176      2638  MEOH      LP1B          -11.6473219986      -32.6119039439      -12.3847832223  MEOH      1946            0.0000000000
     35177      2639  MEOH      C1            -34.2516195937       16.9094146077       -9.7220315066  MEOH      1947            0.0000000000
     35178      2639  MEOH      DC1           -34.2587307305       16.9096247839       -9.7221139814  MEOH      1947            0.0000000000
     35179      2639  MEOH      O1            -34.2135950850       17.9279970916      -10.7194113815  MEOH      1947            0.0000000000
     35180      2639  MEOH      DO1           -34.2184042491       17.9300795278      -10.7252017078  MEOH      1947            0.0000000000
     35181      2639  MEOH      HO1           -34.5760385464       18.7256266573      -10.3030920161  MEOH      1947            0.0000000000
     35182      2639  MEOH      HO2           -33.2974670084       17.9362399724      -11.0380669982  MEOH      1947            0.0000000000
     35183      2639  MEOH      H1A           -33.8204435507       15.9639565332      -10.1151183281  MEOH      1947            0.0000000000
     35184      2639  MEOH      H1B           -35.2927345155       16.7343247689       -9.3759906576  MEOH      1947            0.0000000000
     35185      2639  MEOH      H1C           -33.6451290836       17.2212291353       -8.8449557048  MEOH      1947            0.0000000000
     35186      2639  MEOH      LP1A          -33.9063775641       18.0952914029      -10.7080092663  MEOH      1947            0.0000000000
     35187      2639  MEOH      LP1B          -34.5098762196       17.9242449549      -10.9056998963  MEOH      1947            0.0000000000
     35188      2640  MEOH      C1             24.3213626020      -14.8184577042      -20.6431670224  MEOH      1948            0.0000000000
     35189      2640  MEOH      DC1            24.3115170580      -14.8120975307      -20.6209297877  MEOH      1948            0.0000000000
     35190      2640  MEOH      O1             25.0211558658      -14.7544420138      -21.8744835037  MEOH      1948            0.0000000000
     35191      2640  MEOH      DO1            25.0165734538      -14.7323953961      -21.8544083614  MEOH      1948            0.0000000000
     35192      2640  MEOH      HO1            25.9010889927      -15.1370038176      -21.7321312684  MEOH      1948            0.0000000000
     35193      2640  MEOH      HO2            24.4655132718      -15.2676953988      -22.4817167954  MEOH      1948            0.0000000000
     35194      2640  MEOH      H1A            23.2537782539      -14.6216744354      -20.8795163535  MEOH      1948            0.0000000000
     35195      2640  MEOH      H1B            24.7100365466      -14.0430973942      -19.9488544450  MEOH      1948            0.0000000000
     35196      2640  MEOH      H1C            24.4010270051      -15.8333439870      -20.1982171198  MEOH      1948            0.0000000000
     35197      2640  MEOH      LP1A           24.9597886574      -15.0433917787      -22.0622122950  MEOH      1948            0.0000000000
     35198      2640  MEOH      LP1B           25.1915709588      -14.4497671251      -21.8996212893  MEOH      1948            0.0000000000
     35199      2641  MEOH      C1            -31.8139464650       28.7622907307      -18.9634104894  MEOH      1949            0.0000000000
     35200      2641  MEOH      DC1           -31.8144247900       28.7467345170      -18.9591348627  MEOH      1949            0.0000000000
     35201      2641  MEOH      O1            -32.8674641671       28.1229914973      -18.2475488333  MEOH      1949            0.0000000000
     35202      2641  MEOH      DO1           -32.8633303454       28.1219565552      -18.2369830568  MEOH      1949            0.0000000000
     35203      2641  MEOH      HO1           -33.6018677581       28.0057874467      -18.8702964360  MEOH      1949            0.0000000000
     35204      2641  MEOH      HO2           -32.4675550163       27.3537923342      -17.8124565228  MEOH      1949            0.0000000000
     35205      2641  MEOH      H1A           -30.9605230434       28.9606276636      -18.2802912282  MEOH      1949            0.0000000000
     35206      2641  MEOH      H1B           -32.1778881908       29.7284263505      -19.3738363468  MEOH      1949            0.0000000000
     35207      2641  MEOH      H1C           -31.4647624202       28.1229390326      -19.8022316324  MEOH      1949            0.0000000000
     35208      2641  MEOH      LP1A          -32.8328399103       27.7753533401      -18.2687354446  MEOH      1949            0.0000000000
     35209      2641  MEOH      LP1B          -33.0725699777       28.3631139065      -18.0966421235  MEOH      1949            0.0000000000
     35210      2642  MEOH      C1              9.7141989070        3.6825934840       17.8476580772  MEOH      1950            0.0000000000
     35211      2642  MEOH      DC1             9.7358716786        3.6907319686       17.8533626984  MEOH      1950            0.0000000000
     35212      2642  MEOH      O1             10.1851617760        4.9574454470       18.2913377283  MEOH      1950            0.0000000000
     35213      2642  MEOH      DO1            10.1970360752        4.9667958377       18.2892826569  MEOH      1950            0.0000000000
     35214      2642  MEOH      HO1            10.3533718938        5.4805580241       17.4919888754  MEOH      1950            0.0000000000
     35215      2642  MEOH      HO2             9.5250449764        5.2649485920       18.9321088471  MEOH      1950            0.0000000000
     35216      2642  MEOH      H1A             9.5054236353        3.0333173266       18.7246839374  MEOH      1950            0.0000000000
     35217      2642  MEOH      H1B            10.4712952229        3.1947375408       17.1971792170  MEOH      1950            0.0000000000
     35218      2642  MEOH      H1C             8.7710140383        3.7970625083       17.2717933831  MEOH      1950            0.0000000000
     35219      2642  MEOH      LP1A            9.9148543492        5.1739727508       18.3418334879  MEOH      1950            0.0000000000
     35220      2642  MEOH      LP1B           10.5333757680        4.9509676238       18.3260516101  MEOH      1950            0.0000000000
     35221      2643  MEOH      C1            -14.8211567054      -18.2869059500      -17.1948032672  MEOH      1951            0.0000000000
     35222      2643  MEOH      DC1           -14.8037087676      -18.2937743400      -17.1929363767  MEOH      1951            0.0000000000
     35223      2643  MEOH      O1            -15.8001740803      -19.1332843734      -17.8022759339  MEOH      1951            0.0000000000
     35224      2643  MEOH      DO1           -15.7801337928      -19.1442142485      -17.8043396456  MEOH      1951            0.0000000000
     35225      2643  MEOH      HO1           -16.2225652303      -19.6568093566      -17.1034144967  MEOH      1951            0.0000000000
     35226      2643  MEOH      HO2           -16.3693751986      -18.5307198768      -18.3060875215  MEOH      1951            0.0000000000
     35227      2643  MEOH      H1A           -14.4080644470      -17.5974834090      -17.9618575983  MEOH      1951            0.0000000000
     35228      2643  MEOH      H1B           -13.9954190549      -18.8986740927      -16.7726444440  MEOH      1951            0.0000000000
     35229      2643  MEOH      H1C           -15.2919745765      -17.6803907004      -16.3918146080  MEOH      1951            0.0000000000
     35230      2643  MEOH      LP1A          -16.1077863238      -18.9672286872      -17.8196026967  MEOH      1951            0.0000000000
     35231      2643  MEOH      LP1B          -15.6538302057      -19.4367871369      -17.8969836049  MEOH      1951            0.0000000000
     35232      2644  MEOH      C1            -14.2262202880       16.8137217393      -19.2832758473  MEOH      1952            0.0000000000
     35233      2644  MEOH      DC1           -14.2221383999       16.8207849894      -19.2803188730  MEOH      1952            0.0000000000
     35234      2644  MEOH      O1            -15.6481357199       16.6743650878      -19.2824454328  MEOH      1952            0.0000000000
     35235      2644  MEOH      DO1           -15.6432393614       16.6839718919      -19.2794334204  MEOH      1952            0.0000000000
     35236      2644  MEOH      HO1           -16.0309565133       17.4627988752      -19.6980418766  MEOH      1952            0.0000000000
     35237      2644  MEOH      HO2           -15.8210025025       15.8051520415      -19.6767622542  MEOH      1952            0.0000000000
     35238      2644  MEOH      H1A           -13.7703364607       15.9364678736      -18.7764064431  MEOH      1952            0.0000000000
     35239      2644  MEOH      H1B           -13.9303869363       17.7440133391      -18.7528409618  MEOH      1952            0.0000000000
     35240      2644  MEOH      H1C           -13.8447963501       16.8503016341      -20.3261079003  MEOH      1952            0.0000000000
     35241      2644  MEOH      LP1A          -15.7524636421       16.5098603249      -19.5732269103  MEOH      1952            0.0000000000
     35242      2644  MEOH      LP1B          -15.7810780658       16.8053226998      -18.9863433617  MEOH      1952            0.0000000000
     35243      2645  MEOH      C1             14.0917375232      -15.7897361753       25.7358415933  MEOH      1953            0.0000000000
     35244      2645  MEOH      DC1            14.1156293359      -15.7953827326       25.7359506437  MEOH      1953            0.0000000000
     35245      2645  MEOH      O1             14.5895474753      -17.0562116801       25.3258550388  MEOH      1953            0.0000000000
     35246      2645  MEOH      DO1            14.6025625144      -17.0575683287       25.3493065505  MEOH      1953            0.0000000000
     35247      2645  MEOH      HO1            13.9136301320      -17.4600845782       24.7593548824  MEOH      1953            0.0000000000
     35248      2645  MEOH      HO2            15.4435904390      -16.8686325643       24.9059447004  MEOH      1953            0.0000000000
     35249      2645  MEOH      H1A            14.8821072647      -15.2312346623       26.2814721755  MEOH      1953            0.0000000000
     35250      2645  MEOH      H1B            13.2280283270      -15.9360554100       26.4191556542  MEOH      1953            0.0000000000
     35251      2645  MEOH      H1C            13.7805522809      -15.1834264424       24.8584173776  MEOH      1953            0.0000000000
     35252      2645  MEOH      LP1A           14.7740786344      -17.0223617101       25.0303851912  MEOH      1953            0.0000000000
     35253      2645  MEOH      LP1B           14.4984924656      -17.3015684183       25.5582535246  MEOH      1953            0.0000000000
     35254      2646  MEOH      C1            -15.2457028586       23.6709505251       35.8843847660  MEOH      1954            0.0000000000
     35255      2646  MEOH      DC1           -15.2511786704       23.6610835745       35.8621008863  MEOH      1954            0.0000000000
     35256      2646  MEOH      O1            -14.3043151820       22.8740931408       35.1753807103  MEOH      1954            0.0000000000
     35257      2646  MEOH      DO1           -14.3114855270       22.8687104271       35.1692982107  MEOH      1954            0.0000000000
     35258      2646  MEOH      HO1           -13.4565904014       23.3409719245       35.2408551146  MEOH      1954            0.0000000000
     35259      2646  MEOH      HO2           -14.3880390696       21.9900997091       35.5658239504  MEOH      1954            0.0000000000
     35260      2646  MEOH      H1A           -16.2684275424       23.2402019988       35.8313665703  MEOH      1954            0.0000000000
     35261      2646  MEOH      H1B           -15.2387201867       24.7211206176       35.5218726711  MEOH      1954            0.0000000000
     35262      2646  MEOH      H1C           -14.9412051247       23.6624806442       36.9528090230  MEOH      1954            0.0000000000
     35263      2646  MEOH      LP1A          -14.1601183821       22.6389963914       35.3908727086  MEOH      1954            0.0000000000
     35264      2646  MEOH      LP1B          -14.2983481197       22.9675001137       34.8381277910  MEOH      1954            0.0000000000
     35265      2647  MEOH      C1             16.4587481888        6.7341124412      -13.4611680818  MEOH      1955            0.0000000000
     35266      2647  MEOH      DC1            16.4719057292        6.7444210187      -13.4657520196  MEOH      1955            0.0000000000
     35267      2647  MEOH      O1             16.7671524737        7.9148131796      -12.7132782513  MEOH      1955            0.0000000000
     35268      2647  MEOH      DO1            16.7760271143        7.9293538784      -12.7112147809  MEOH      1955            0.0000000000
     35269      2647  MEOH      HO1            16.5939779899        8.6581771311      -13.3118771436  MEOH      1955            0.0000000000
     35270      2647  MEOH      HO2            16.2627584045        7.8356791849      -11.8885210534  MEOH      1955            0.0000000000
     35271      2647  MEOH      H1A            16.6223195297        5.8375356740      -12.8257819638  MEOH      1955            0.0000000000
     35272      2647  MEOH      H1B            17.0963884231        6.6661974567      -14.3684296135  MEOH      1955            0.0000000000
     35273      2647  MEOH      H1C            15.3932504666        6.7460857089      -13.7756394556  MEOH      1955            0.0000000000
     35274      2647  MEOH      LP1A           16.4836171124        8.0238866475      -12.5394660610  MEOH      1955            0.0000000000
     35275      2647  MEOH      LP1B           17.1051026610        7.9967699863      -12.7529361978  MEOH      1955            0.0000000000
     35276      2648  MEOH      C1             -1.0696247279      -28.2366825003       14.9909783903  MEOH      1956            0.0000000000
     35277      2648  MEOH      DC1            -1.0715687432      -28.2062595862       15.0129004511  MEOH      1956            0.0000000000
     35278      2648  MEOH      O1             -1.7499591147      -29.3850469835       15.5109177416  MEOH      1956            0.0000000000
     35279      2648  MEOH      DO1            -1.7501567076      -29.3634156059       15.5403451309  MEOH      1956            0.0000000000
     35280      2648  MEOH      HO1            -2.0513469802      -29.8814907237       14.7339949863  MEOH      1956            0.0000000000
     35281      2648  MEOH      HO2            -1.1103570793      -29.8158944183       16.0992881387  MEOH      1956            0.0000000000
     35282      2648  MEOH      H1A            -0.5665387550      -27.6831016577       15.8124245269  MEOH      1956            0.0000000000
     35283      2648  MEOH      H1B            -1.7921766243      -27.5801451904       14.4606968446  MEOH      1956            0.0000000000
     35284      2648  MEOH      H1C            -0.2882602277      -28.5563339075       14.2687502422  MEOH      1956            0.0000000000
     35285      2648  MEOH      LP1A           -1.5232123507      -29.6475363564       15.5576642294  MEOH      1956            0.0000000000
     35286      2648  MEOH      LP1B           -2.0882237976      -29.3109441376       15.5617682332  MEOH      1956            0.0000000000
     35287      2649  MEOH      C1             34.2611003776        3.8600974774       32.5259819924  MEOH      1957            0.0000000000
     35288      2649  MEOH      DC1            34.2660138949        3.8581438046       32.5276263464  MEOH      1957            0.0000000000
     35289      2649  MEOH      O1             33.6003396436        3.3579209114       33.6877794215  MEOH      1957            0.0000000000
     35290      2649  MEOH      DO1            33.6035109333        3.3588706494       33.6901342538  MEOH      1957            0.0000000000
     35291      2649  MEOH      HO1            33.9415614843        2.4686680891       33.8713470494  MEOH      1957            0.0000000000
     35292      2649  MEOH      HO2            33.6679621624        4.0558809385       34.3579875948  MEOH      1957            0.0000000000
     35293      2649  MEOH      H1A            33.8005644699        4.8277539882       32.2329486245  MEOH      1957            0.0000000000
     35294      2649  MEOH      H1B            34.1523930344        3.1444736227       31.6831378709  MEOH      1957            0.0000000000
     35295      2649  MEOH      H1C            35.3398027325        4.0180221200       32.7399493655  MEOH      1957            0.0000000000
     35296      2649  MEOH      LP1A           33.7772274089        3.4501534352       33.9753622444  MEOH      1957            0.0000000000
     35297      2649  MEOH      LP1B           33.3066460530        3.1912319747       33.5958072884  MEOH      1957            0.0000000000
     35298      2650  MEOH      C1             21.0418187302      -27.5295196787       25.8025816998  MEOH      1958            0.0000000000
     35299      2650  MEOH      DC1            21.0397487396      -27.5222757077       25.8114059654  MEOH      1958            0.0000000000
     35300      2650  MEOH      O1             19.6728022711      -27.7020973250       25.4270178311  MEOH      1958            0.0000000000
     35301      2650  MEOH      DO1            19.6633451282      -27.6838593614       25.4327965507  MEOH      1958            0.0000000000
     35302      2650  MEOH      HO1            19.3883819020      -28.5653276861       25.7658959777  MEOH      1958            0.0000000000
     35303      2650  MEOH      HO2            19.2133845459      -26.8723552678       25.6303979493  MEOH      1958            0.0000000000
     35304      2650  MEOH      H1A            21.5048211308      -26.7392204563       25.1737916570  MEOH      1958            0.0000000000
     35305      2650  MEOH      H1B            21.6035363177      -28.4763097776       25.6529726725  MEOH      1958            0.0000000000
     35306      2650  MEOH      H1C            21.1048696988      -27.2229280270       26.8685775415  MEOH      1958            0.0000000000
     35307      2650  MEOH      LP1A           19.4632746032      -27.5697426226       25.6741623013  MEOH      1958            0.0000000000
     35308      2650  MEOH      LP1B           19.6532479182      -27.8530774823       25.1118629178  MEOH      1958            0.0000000000
     35309      2651  MEOH      C1            -23.7577193890        1.3329300936       28.5391840370  MEOH      1959            0.0000000000
     35310      2651  MEOH      DC1           -23.7698760005        1.3261200188       28.5417726098  MEOH      1959            0.0000000000
     35311      2651  MEOH      O1            -24.3162648627        0.5193137036       29.5746904899  MEOH      1959            0.0000000000
     35312      2651  MEOH      DO1           -24.3437176900        0.5109991301       29.5697596522  MEOH      1959            0.0000000000
     35313      2651  MEOH      HO1           -24.4025709065       -0.3701736003       29.1975120128  MEOH      1959            0.0000000000
     35314      2651  MEOH      HO2           -23.7199681057        0.6292602777       30.3318179088  MEOH      1959            0.0000000000
     35315      2651  MEOH      H1A           -23.5077792343        2.3412052974       28.9331790044  MEOH      1959            0.0000000000
     35316      2651  MEOH      H1B           -24.4821149265        1.4602782153       27.7065048901  MEOH      1959            0.0000000000
     35317      2651  MEOH      H1C           -22.8187557188        0.8749446633       28.1611396327  MEOH      1959            0.0000000000
     35318      2651  MEOH      LP1A          -24.0604427057        0.3818116260       29.7700061386  MEOH      1959            0.0000000000
     35319      2651  MEOH      LP1B          -24.6657888617        0.5297243096       29.5597040481  MEOH      1959            0.0000000000
     35320      2652  MEOH      C1            -23.5530512766      -13.9569379394       19.3585232824  MEOH      1960            0.0000000000
     35321      2652  MEOH      DC1           -23.5471101825      -13.9440273004       19.3482644185  MEOH      1960            0.0000000000
     35322      2652  MEOH      O1            -22.7376841373      -15.0080978883       19.8826984475  MEOH      1960            0.0000000000
     35323      2652  MEOH      DO1           -22.7310606938      -14.9970659526       19.8803199098  MEOH      1960            0.0000000000
     35324      2652  MEOH      HO1           -22.7013329573      -15.7149478669       19.2194174361  MEOH      1960            0.0000000000
     35325      2652  MEOH      HO2           -21.9231492253      -14.5910211161       20.2043812774  MEOH      1960            0.0000000000
     35326      2652  MEOH      H1A           -23.7172683998      -13.1921511080       20.1474813551  MEOH      1960            0.0000000000
     35327      2652  MEOH      H1B           -24.5434278975      -14.3526258129       19.0472255855  MEOH      1960            0.0000000000
     35328      2652  MEOH      H1C           -23.0486927103      -13.4888127417       18.4862835012  MEOH      1960            0.0000000000
     35329      2652  MEOH      LP1A          -22.4026515326      -14.9536145058       19.7973479070  MEOH      1960            0.0000000000
     35330      2652  MEOH      LP1B          -22.9345380784      -15.2325136692       20.0654170376  MEOH      1960            0.0000000000
     35331      2653  MEOH      C1             -5.3035715583        7.5747355639       16.1146605622  MEOH      1961            0.0000000000
     35332      2653  MEOH      DC1            -5.3025767053        7.5762654709       16.1083671029  MEOH      1961            0.0000000000
     35333      2653  MEOH      O1             -5.8788473583        8.4006034041       17.1228550366  MEOH      1961            0.0000000000
     35334      2653  MEOH      DO1            -5.8655900662        8.4008416299       17.1136306867  MEOH      1961            0.0000000000
     35335      2653  MEOH      HO1            -6.8071342837        8.1475345587       17.2458978939  MEOH      1961            0.0000000000
     35336      2653  MEOH      HO2            -5.2656922463        8.3559666356       17.8731538887  MEOH      1961            0.0000000000
     35337      2653  MEOH      H1A            -4.2617393960        7.9115396999       15.9263264929  MEOH      1961            0.0000000000
     35338      2653  MEOH      H1B            -5.8858980094        7.6593151038       15.1722895066  MEOH      1961            0.0000000000
     35339      2653  MEOH      H1C            -5.2863084267        6.5127838163       16.4406689517  MEOH      1961            0.0000000000
     35340      2653  MEOH      LP1A           -5.8324038624        8.2550394587       17.4377425394  MEOH      1961            0.0000000000
     35341      2653  MEOH      LP1B           -6.0119469168        8.6904151485       16.9786549659  MEOH      1961            0.0000000000
     35342      2654  MEOH      C1             12.5677642288        9.4504423610       36.0701224930  MEOH      1962            0.0000000000
     35343      2654  MEOH      DC1            12.5712672155        9.4513054055       36.0690340478  MEOH      1962            0.0000000000
     35344      2654  MEOH      O1             11.3138621143        9.6788616653       36.7127678133  MEOH      1962            0.0000000000
     35345      2654  MEOH      DO1            11.3222156569        9.6823720895       36.7174603278  MEOH      1962            0.0000000000
     35346      2654  MEOH      HO1            10.7701804697       10.2131505908       36.1128964817  MEOH      1962            0.0000000000
     35347      2654  MEOH      HO2            10.9963333916        8.8030169798       36.9829003680  MEOH      1962            0.0000000000
     35348      2654  MEOH      H1A            13.2240423821        8.8542743987       36.7396026990  MEOH      1962            0.0000000000
     35349      2654  MEOH      H1B            13.0621462055       10.4206372008       35.8496016649  MEOH      1962            0.0000000000
     35350      2654  MEOH      H1C            12.4097437733        8.8911613521       35.1232564573  MEOH      1962            0.0000000000
     35351      2654  MEOH      LP1A           11.0907967819        9.4205400085       36.6352321498  MEOH      1962            0.0000000000
     35352      2654  MEOH      LP1B           11.3301661093        9.9694447594       36.9071788346  MEOH      1962            0.0000000000
     35353      2655  MEOH      C1             13.2917577389        2.6828951181       18.5768341271  MEOH      1963            0.0000000000
     35354      2655  MEOH      DC1            13.2988383216        2.6810384124       18.5759580561  MEOH      1963            0.0000000000
     35355      2655  MEOH      O1             14.1095316140        1.8253638346       17.7801845486  MEOH      1963            0.0000000000
     35356      2655  MEOH      DO1            14.1135857672        1.8239266721       17.7810602813  MEOH      1963            0.0000000000
     35357      2655  MEOH      HO1            13.8256791818        1.9287840635       16.8584296714  MEOH      1963            0.0000000000
     35358      2655  MEOH      HO2            15.0252003385        2.0015648588       18.0473997915  MEOH      1963            0.0000000000
     35359      2655  MEOH      H1A            13.5256079547        2.5239729635       19.6512543555  MEOH      1963            0.0000000000
     35360      2655  MEOH      H1B            12.2208795764        2.4398527029       18.4080995844  MEOH      1963            0.0000000000
     35361      2655  MEOH      H1C            13.4773251283        3.7499458838       18.3292691714  MEOH      1963            0.0000000000
     35362      2655  MEOH      LP1A           14.3980156438        1.9955295869       17.6785942867  MEOH      1963            0.0000000000
     35363      2655  MEOH      LP1B           13.9637438320        1.5079730060       17.7576238624  MEOH      1963            0.0000000000
     35364      2656  MEOH      C1             35.7404823964       14.0540438078       -3.1808349803  MEOH      1964            0.0000000000
     35365      2656  MEOH      DC1            35.7321786667       14.0608195618       -3.1840233347  MEOH      1964            0.0000000000
     35366      2656  MEOH      O1             34.9752009171       15.2073413079       -2.8126486346  MEOH      1964            0.0000000000
     35367      2656  MEOH      DO1            34.9652139743       15.2122512222       -2.8160363726  MEOH      1964            0.0000000000
     35368      2656  MEOH      HO1            35.3852080847       15.5773953204       -2.0152440006  MEOH      1964            0.0000000000
     35369      2656  MEOH      HO2            34.8710082921       15.7357497625       -3.6193879996  MEOH      1964            0.0000000000
     35370      2656  MEOH      H1A            35.2840196530       13.5594741182       -4.0647827093  MEOH      1964            0.0000000000
     35371      2656  MEOH      H1B            35.7582742316       13.3268131137       -2.3411088528  MEOH      1964            0.0000000000
     35372      2656  MEOH      H1C            36.7792742169       14.3510104502       -3.4397623197  MEOH      1964            0.0000000000
     35373      2656  MEOH      LP1A           35.1016844648       15.4912860582       -2.9735128350  MEOH      1964            0.0000000000
     35374      2656  MEOH      LP1B           34.7138403631       15.1144317042       -2.5992043413  MEOH      1964            0.0000000000
     35375      2657  MEOH      C1            -21.8455699308       19.5767317932       17.5841277786  MEOH      1965            0.0000000000
     35376      2657  MEOH      DC1           -21.8349006200       19.6014891648       17.6023131051  MEOH      1965            0.0000000000
     35377      2657  MEOH      O1            -22.6434672520       18.4258734185       17.3360855469  MEOH      1965            0.0000000000
     35378      2657  MEOH      DO1           -22.6362874580       18.4521824524       17.3448369119  MEOH      1965            0.0000000000
     35379      2657  MEOH      HO1           -22.1397195647       17.6151625476       17.5089616671  MEOH      1965            0.0000000000
     35380      2657  MEOH      HO2           -23.5033831667       18.5787893968       17.7580586778  MEOH      1965            0.0000000000
     35381      2657  MEOH      H1A           -22.3850204978       20.4665352330       17.1948156609  MEOH      1965            0.0000000000
     35382      2657  MEOH      H1B           -20.8736786236       19.4832432513       17.0540257323  MEOH      1965            0.0000000000
     35383      2657  MEOH      H1C           -21.6797418402       19.6887908190       18.6769520193  MEOH      1965            0.0000000000
     35384      2657  MEOH      LP1A          -22.8169903477       18.3356866622       17.6263545330  MEOH      1965            0.0000000000
     35385      2657  MEOH      LP1B          -22.6130744054       18.3290669470       17.0011157245  MEOH      1965            0.0000000000
     35386      2658  MEOH      C1            -19.9132272803       20.1440805236       35.2781719418  MEOH      1966            0.0000000000
     35387      2658  MEOH      DC1           -19.9076011895       20.1580189934       35.2728428838  MEOH      1966            0.0000000000
     35388      2658  MEOH      O1            -20.1187578292       18.8061603358       35.7358895192  MEOH      1966            0.0000000000
     35389      2658  MEOH      DO1           -20.1100860509       18.8198419932       35.7307835140  MEOH      1966            0.0000000000
     35390      2658  MEOH      HO1           -20.6292797585       18.3146983844       35.0735206560  MEOH      1966            0.0000000000
     35391      2658  MEOH      HO2           -19.2533158988       18.4837790264       36.0325046846  MEOH      1966            0.0000000000
     35392      2658  MEOH      H1A           -19.4731217841       20.7438259050       36.1033589692  MEOH      1966            0.0000000000
     35393      2658  MEOH      H1B           -20.8823105525       20.5974661175       34.9787723513  MEOH      1966            0.0000000000
     35394      2658  MEOH      H1C           -19.2159218235       20.1468884921       34.4132567920  MEOH      1966            0.0000000000
     35395      2658  MEOH      LP1A          -19.8536552505       18.6022777804       35.6326784427  MEOH      1966            0.0000000000
     35396      2658  MEOH      LP1B          -20.4124732424       18.7882634855       35.9253913894  MEOH      1966            0.0000000000
     35397      2659  MEOH      C1             23.4706461208       34.1921511600      -17.7158776943  MEOH      1967            0.0000000000
     35398      2659  MEOH      DC1            23.4802458922       34.2210459127      -17.7143089536  MEOH      1967            0.0000000000
     35399      2659  MEOH      O1             24.2185707630       35.3796347417      -17.9587525175  MEOH      1967            0.0000000000
     35400      2659  MEOH      DO1            24.2584965418       35.3957827376      -17.9549866029  MEOH      1967            0.0000000000
     35401      2659  MEOH      HO1            24.1155106786       35.5361293998      -18.9104814921  MEOH      1967            0.0000000000
     35402      2659  MEOH      HO2            23.8826087448       36.0265891032      -17.3188466044  MEOH      1967            0.0000000000
     35403      2659  MEOH      H1A            23.5120888332       33.9131806531      -16.6412712741  MEOH      1967            0.0000000000
     35404      2659  MEOH      H1B            23.8667879344       33.3494324448      -18.3218627030  MEOH      1967            0.0000000000
     35405      2659  MEOH      H1C            22.4129252225       34.3576974762      -18.0127647439  MEOH      1967            0.0000000000
     35406      2659  MEOH      LP1A           24.0146192211       35.6606551140      -17.9148057442  MEOH      1967            0.0000000000
     35407      2659  MEOH      LP1B           24.5510356124       35.2987467608      -18.0324020826  MEOH      1967            0.0000000000
     35408      2660  MEOH      C1             36.5168861555       28.0633730129       -3.9852340113  MEOH      1968            0.0000000000
     35409      2660  MEOH      DC1            36.5142961213       28.0718498889       -3.9752532835  MEOH      1968            0.0000000000
     35410      2660  MEOH      O1             35.9811649461       26.8997825371       -4.6181196866  MEOH      1968            0.0000000000
     35411      2660  MEOH      DO1            35.9830616511       26.9094619893       -4.6084592953  MEOH      1968            0.0000000000
     35412      2660  MEOH      HO1            36.1043071328       26.1233927771       -4.0498284387  MEOH      1968            0.0000000000
     35413      2660  MEOH      HO2            35.0986235077       27.1426738901       -4.9390938297  MEOH      1968            0.0000000000
     35414      2660  MEOH      H1A            36.5274500481       28.8962511922       -4.7204369386  MEOH      1968            0.0000000000
     35415      2660  MEOH      H1B            37.5559736838       27.8733044175       -3.6410072863  MEOH      1968            0.0000000000
     35416      2660  MEOH      H1C            35.8860775741       28.3569484164       -3.1190844769  MEOH      1968            0.0000000000
     35417      2660  MEOH      LP1A           35.6433737411       26.8627267639       -4.5343105494  MEOH      1968            0.0000000000
     35418      2660  MEOH      LP1B           36.2260561512       26.7482195166       -4.8170089737  MEOH      1968            0.0000000000
     35419      2661  MEOH      C1             -6.1334295564       10.9416689854      -26.4443012946  MEOH      1969            0.0000000000
     35420      2661  MEOH      DC1            -6.1021595016       10.9765442854      -26.4512584328  MEOH      1969            0.0000000000
     35421      2661  MEOH      O1             -5.3853248246       12.0597527590      -26.9170144771  MEOH      1969            0.0000000000
     35422      2661  MEOH      DO1            -5.3641398629       12.0809966649      -26.9265038784  MEOH      1969            0.0000000000
     35423      2661  MEOH      HO1            -5.4599482483       12.7260117952      -26.2159936205  MEOH      1969            0.0000000000
     35424      2661  MEOH      HO2            -4.5287030225       11.7039386831      -27.2007316463  MEOH      1969            0.0000000000
     35425      2661  MEOH      H1A            -6.2213362370       10.1683626279      -27.2371384120  MEOH      1969            0.0000000000
     35426      2661  MEOH      H1B            -7.1536816412       11.2618742288      -26.1428460144  MEOH      1969            0.0000000000
     35427      2661  MEOH      H1C            -5.6441709378       10.4692898096      -25.5657770101  MEOH      1969            0.0000000000
     35428      2661  MEOH      LP1A           -5.0508268779       12.0303456208      -26.8182909039  MEOH      1969            0.0000000000
     35429      2661  MEOH      LP1B           -5.5916874335       12.2711358925      -27.1047154215  MEOH      1969            0.0000000000
     35430      2662  MEOH      C1             11.7927387206       -5.3170968899       10.6843062290  MEOH      1970            0.0000000000
     35431      2662  MEOH      DC1            11.7861225075       -5.3220546278       10.6709651925  MEOH      1970            0.0000000000
     35432      2662  MEOH      O1             11.2918495241       -6.0113521488        9.5420570573  MEOH      1970            0.0000000000
     35433      2662  MEOH      DO1            11.3019542490       -6.0100619973        9.5277568815  MEOH      1970            0.0000000000
     35434      2662  MEOH      HO1            10.3642209706       -6.2247857566        9.7287422543  MEOH      1970            0.0000000000
     35435      2662  MEOH      HO2            11.5296814405       -5.4623464322        8.7785593804  MEOH      1970            0.0000000000
     35436      2662  MEOH      H1A            12.8876092403       -5.1582495755       10.5825856499  MEOH      1970            0.0000000000
     35437      2662  MEOH      H1B            11.6054346005       -5.8930465806       11.6157138306  MEOH      1970            0.0000000000
     35438      2662  MEOH      H1C            11.2934740676       -4.3283859820       10.7709465668  MEOH      1970            0.0000000000
     35439      2662  MEOH      LP1A           11.1623490124       -5.7830727850        9.3105011256  MEOH      1970            0.0000000000
     35440      2662  MEOH      LP1B           11.3475922840       -6.3551176926        9.5769568513  MEOH      1970            0.0000000000
     35441      2663  MEOH      C1             20.4514739804       33.4704849101        8.7352286017  MEOH      1971            0.0000000000
     35442      2663  MEOH      DC1            20.4579961188       33.4474914362        8.7407980585  MEOH      1971            0.0000000000
     35443      2663  MEOH      O1             21.2654931893       34.2769107440        7.8782910995  MEOH      1971            0.0000000000
     35444      2663  MEOH      DO1            21.2743829708       34.2648415807        7.8724238231  MEOH      1971            0.0000000000
     35445      2663  MEOH      HO1            21.0373152526       34.0413726862        6.9654073974  MEOH      1971            0.0000000000
     35446      2663  MEOH      HO2            21.1404438079       35.1881203700        8.1864463682  MEOH      1971            0.0000000000
     35447      2663  MEOH      H1A            20.6529911791       33.7430094367        9.7932655589  MEOH      1971            0.0000000000
     35448      2663  MEOH      H1B            20.6785259427       32.3958590207        8.5680532305  MEOH      1971            0.0000000000
     35449      2663  MEOH      H1C            19.3779213210       33.6682412063        8.5285933315  MEOH      1971            0.0000000000
     35450      2663  MEOH      LP1A           21.1035633955       34.5794272624        7.8092802455  MEOH      1971            0.0000000000
     35451      2663  MEOH      LP1B           21.5684539632       34.1142270842        7.8131083081  MEOH      1971            0.0000000000
     35452      2664  MEOH      C1            -10.0948953810      -17.5516125496       35.8819632239  MEOH      1972            0.0000000000
     35453      2664  MEOH      DC1           -10.0783036351      -17.5495263100       35.8715523459  MEOH      1972            0.0000000000
     35454      2664  MEOH      O1             -8.8780434804      -18.2669823604       35.9787323849  MEOH      1972            0.0000000000
     35455      2664  MEOH      DO1            -8.8706902046      -18.2823213316       35.9710292313  MEOH      1972            0.0000000000
     35456      2664  MEOH      HO1            -9.1427516600      -19.2001036490       35.9894207515  MEOH      1972            0.0000000000
     35457      2664  MEOH      HO2            -8.4696353477      -17.9178146134       36.7863119053  MEOH      1972            0.0000000000
     35458      2664  MEOH      H1A           -10.2085238000      -16.9208274750       36.7894431259  MEOH      1972            0.0000000000
     35459      2664  MEOH      H1B           -10.9489248341      -18.2549638940       35.7807131396  MEOH      1972            0.0000000000
     35460      2664  MEOH      H1C           -10.0704175611      -16.8373319007       35.0313605010  MEOH      1972            0.0000000000
     35461      2664  MEOH      LP1A           -8.7517163079      -18.3321217710       35.6588913265  MEOH      1972            0.0000000000
     35462      2664  MEOH      LP1B           -8.7926497338      -18.3129941615       36.3150221740  MEOH      1972            0.0000000000
     35463      2665  MEOH      C1             36.2017601931       14.1051576061       30.9469934045  MEOH      1973            0.0000000000
     35464      2665  MEOH      DC1            36.2154485110       14.1099588307       30.9439333157  MEOH      1973            0.0000000000
     35465      2665  MEOH      O1             35.5089905171       15.0881915128       30.1733580872  MEOH      1973            0.0000000000
     35466      2665  MEOH      DO1            35.5182789590       15.0859003462       30.1658339485  MEOH      1973            0.0000000000
     35467      2665  MEOH      HO1            35.1189293425       15.7247719620       30.7926460762  MEOH      1973            0.0000000000
     35468      2665  MEOH      HO2            36.1218844282       15.3701127404       29.4763778326  MEOH      1973            0.0000000000
     35469      2665  MEOH      H1A            36.5226130900       13.2691021422       30.2894330030  MEOH      1973            0.0000000000
     35470      2665  MEOH      H1B            35.5327985444       13.7001749254       31.7361704076  MEOH      1973            0.0000000000
     35471      2665  MEOH      H1C            37.0913675403       14.5617310630       31.4312045633  MEOH      1973            0.0000000000
     35472      2665  MEOH      LP1A           35.7262822675       15.3494315807       30.0894657624  MEOH      1973            0.0000000000
     35473      2665  MEOH      LP1B           35.1787981578       14.9861253820       30.1180814123  MEOH      1973            0.0000000000
     35474      2666  MEOH      C1            -19.4608468153       -8.0171706739       16.1237134653  MEOH      1974            0.0000000000
     35475      2666  MEOH      DC1           -19.4650445832       -8.0660397736       16.1131705050  MEOH      1974            0.0000000000
     35476      2666  MEOH      O1            -19.4502228145       -9.2564867825       15.4095463092  MEOH      1974            0.0000000000
     35477      2666  MEOH      DO1           -19.4340019784       -9.2931618177       15.4072693197  MEOH      1974            0.0000000000
     35478      2666  MEOH      HO1           -19.0396591331       -9.0551584487       14.5540906608  MEOH      1974            0.0000000000
     35479      2666  MEOH      HO2           -19.1457212181       -9.9445563143       16.0217056816  MEOH      1974            0.0000000000
     35480      2666  MEOH      H1A           -20.1440622143       -8.0651508531       16.9984909347  MEOH      1974            0.0000000000
     35481      2666  MEOH      H1B           -19.8252658862       -7.2118011468       15.4507352582  MEOH      1974            0.0000000000
     35482      2666  MEOH      H1C           -18.4407627253       -7.7446676643       16.4693889774  MEOH      1974            0.0000000000
     35483      2666  MEOH      LP1A          -19.1560305639       -9.4326046366       15.4797846263  MEOH      1974            0.0000000000
     35484      2666  MEOH      LP1B          -19.7476507822       -9.2929883133       15.2287031664  MEOH      1974            0.0000000000
     35485      2667  MEOH      C1             22.9361666852      -17.4520519425       10.7064895918  MEOH      1975            0.0000000000
     35486      2667  MEOH      DC1            22.9319514622      -17.4374886497       10.7001272957  MEOH      1975            0.0000000000
     35487      2667  MEOH      O1             22.2412701421      -16.3461911778       10.1278223959  MEOH      1975            0.0000000000
     35488      2667  MEOH      DO1            22.2365281945      -16.3386196679       10.1118242426  MEOH      1975            0.0000000000
     35489      2667  MEOH      HO1            21.5518768158      -16.0968432164       10.7630093271  MEOH      1975            0.0000000000
     35490      2667  MEOH      HO2            22.9272415920      -15.7067113545        9.8800145557  MEOH      1975            0.0000000000
     35491      2667  MEOH      H1A            23.6973230297      -17.8314451165        9.9916309756  MEOH      1975            0.0000000000
     35492      2667  MEOH      H1B            22.2256107838      -18.2746777466       10.9360938131  MEOH      1975            0.0000000000
     35493      2667  MEOH      H1C            23.4416174269      -17.1398708665       11.6453098747  MEOH      1975            0.0000000000
     35494      2667  MEOH      LP1A           22.3957546989      -16.0460678702       10.2203454847  MEOH      1975            0.0000000000
     35495      2667  MEOH      LP1B           21.9771957936      -16.4614634099        9.9291340698  MEOH      1975            0.0000000000
     35496      2668  MEOH      C1             -6.7285101647      -26.8247557984        2.6923711045  MEOH      1976            0.0000000000
     35497      2668  MEOH      DC1            -6.7384796288      -26.8103231697        2.6909141139  MEOH      1976            0.0000000000
     35498      2668  MEOH      O1             -6.3704253721      -27.1908732106        4.0262741828  MEOH      1976            0.0000000000
     35499      2668  MEOH      DO1            -6.3753795058      -27.1841789696        4.0134411657  MEOH      1976            0.0000000000
     35500      2668  MEOH      HO1            -6.1053744805      -26.4078739908        4.5337781204  MEOH      1976            0.0000000000
     35501      2668  MEOH      HO2            -7.0894287964      -27.7555262001        4.3504671473  MEOH      1976            0.0000000000
     35502      2668  MEOH      H1A            -6.9654182932      -27.7405415675        2.1096773901  MEOH      1976            0.0000000000
     35503      2668  MEOH      H1B            -5.8813504679      -26.2982525246        2.2030493795  MEOH      1976            0.0000000000
     35504      2668  MEOH      H1C            -7.6296200465      -26.1749039534        2.6961872363  MEOH      1976            0.0000000000
     35505      2668  MEOH      LP1A           -6.6531772867      -27.1835207660        4.2324229067  MEOH      1976            0.0000000000
     35506      2668  MEOH      LP1B           -6.0299466148      -27.2705641453        4.0412264646  MEOH      1976            0.0000000000
     35507      2669  MEOH      C1            -36.3407358247       -4.2932359039      -27.3133465609  MEOH      1977            0.0000000000
     35508      2669  MEOH      DC1           -36.3508973851       -4.2924599390      -27.3190211255  MEOH      1977            0.0000000000
     35509      2669  MEOH      O1            -35.3995686366       -5.3393597993      -27.1051607396  MEOH      1977            0.0000000000
     35510      2669  MEOH      DO1           -35.4005321208       -5.3337566305      -27.0937392962  MEOH      1977            0.0000000000
     35511      2669  MEOH      HO1           -34.9463404355       -5.5328932160      -27.9406420466  MEOH      1977            0.0000000000
     35512      2669  MEOH      HO2           -34.9056270104       -5.1051193401      -26.3038785928  MEOH      1977            0.0000000000
     35513      2669  MEOH      H1A           -36.8040754019       -4.0907165938      -26.3240926171  MEOH      1977            0.0000000000
     35514      2669  MEOH      H1B           -37.0915140161       -4.6154377815      -28.0662337098  MEOH      1977            0.0000000000
     35515      2669  MEOH      H1C           -35.8987519498       -3.3354273765      -27.6620213085  MEOH      1977            0.0000000000
     35516      2669  MEOH      LP1A          -35.0910670096       -5.2053295171      -27.0084000575  MEOH      1977            0.0000000000
     35517      2669  MEOH      LP1B          -35.5526954958       -5.6499811497      -27.1558217863  MEOH      1977            0.0000000000
     35518      2670  MEOH      C1            -33.9292653893        7.2276683272       -3.5938224970  MEOH      1978            0.0000000000
     35519      2670  MEOH      DC1           -33.9272117833        7.2212506662       -3.6060241459  MEOH      1978            0.0000000000
     35520      2670  MEOH      O1            -32.9935288652        7.7803595205       -4.5134994063  MEOH      1978            0.0000000000
     35521      2670  MEOH      DO1           -32.9836216128        7.7721075437       -4.5260218878  MEOH      1978            0.0000000000
     35522      2670  MEOH      HO1           -32.9378491111        8.7195276749       -4.2773576176  MEOH      1978            0.0000000000
     35523      2670  MEOH      HO2           -32.2153944471        7.2017783448       -4.4879915556  MEOH      1978            0.0000000000
     35524      2670  MEOH      H1A           -34.1617078195        6.1801260141       -3.8818270451  MEOH      1978            0.0000000000
     35525      2670  MEOH      H1B           -34.8653808250        7.8259526227       -3.6018718966  MEOH      1978            0.0000000000
     35526      2670  MEOH      H1C           -33.5079322422        7.2347188293       -2.5658391941  MEOH      1978            0.0000000000
     35527      2670  MEOH      LP1A          -32.6692528520        7.7546211462       -4.3843382538  MEOH      1978            0.0000000000
     35528      2670  MEOH      LP1B          -33.1591272778        7.8887239647       -4.8021762378  MEOH      1978            0.0000000000
     35529      2671  MEOH      C1             36.8040555645      -14.2752744626       32.6762052135  MEOH      1979            0.0000000000
     35530      2671  MEOH      DC1            36.7946888524      -14.2799247876       32.6759478882  MEOH      1979            0.0000000000
     35531      2671  MEOH      O1             36.1830761311      -15.5628444613       32.6601544377  MEOH      1979            0.0000000000
     35532      2671  MEOH      DO1            36.1741253710      -15.5687687437       32.6527712330  MEOH      1979            0.0000000000
     35533      2671  MEOH      HO1            35.4870683781      -15.5305204057       31.9853001096  MEOH      1979            0.0000000000
     35534      2671  MEOH      HO2            36.9060982206      -16.2065598062       32.5987572655  MEOH      1979            0.0000000000
     35535      2671  MEOH      H1A            37.5227168676      -14.2200584867       33.5216625615  MEOH      1979            0.0000000000
     35536      2671  MEOH      H1B            36.0367086963      -13.4819679804       32.8033453385  MEOH      1979            0.0000000000
     35537      2671  MEOH      H1C            37.3570810051      -14.1029958546       31.7281525020  MEOH      1979            0.0000000000
     35538      2671  MEOH      LP1A           36.3500294083      -15.7734795632       32.4359682270  MEOH      1979            0.0000000000
     35539      2671  MEOH      LP1B           35.9192242845      -15.5713668722       32.8899577701  MEOH      1979            0.0000000000
     35540      2672  MEOH      C1             14.7255396612       28.0463479627      -36.3477590836  MEOH      1980            0.0000000000
     35541      2672  MEOH      DC1            14.7173527978       28.0596450654      -36.3425068916  MEOH      1980            0.0000000000
     35542      2672  MEOH      O1             15.5842262938       27.1660349695      -37.0746159899  MEOH      1980            0.0000000000
     35543      2672  MEOH      DO1            15.5771683286       27.1775086906      -37.0641387008  MEOH      1980            0.0000000000
     35544      2672  MEOH      HO1            16.4436247450       27.0943209534      -36.6305536033  MEOH      1980            0.0000000000
     35545      2672  MEOH      HO2            15.0604088911       26.3820383155      -37.3023539428  MEOH      1980            0.0000000000
     35546      2672  MEOH      H1A            13.8217748120       28.2537613418      -36.9597311320  MEOH      1980            0.0000000000
     35547      2672  MEOH      H1B            15.2436598787       29.0093227158      -36.1514122856  MEOH      1980            0.0000000000
     35548      2672  MEOH      H1C            14.4136631258       27.5705599573      -35.3934636354  MEOH      1980            0.0000000000
     35549      2672  MEOH      LP1A           15.5400052729       26.8370433852      -36.9636698822  MEOH      1980            0.0000000000
     35550      2672  MEOH      LP1B           15.7640625929       27.3457900372      -37.3151300666  MEOH      1980            0.0000000000
     35551      2673  MEOH      C1             -8.8613877845       -6.7381338577      -33.0090889629  MEOH      1981            0.0000000000
     35552      2673  MEOH      DC1            -8.8667226501       -6.7491030721      -33.0069803278  MEOH      1981            0.0000000000
     35553      2673  MEOH      O1             -8.1382961409       -5.9665492251      -33.9703630632  MEOH      1981            0.0000000000
     35554      2673  MEOH      DO1            -8.1394033804       -5.9768815047      -33.9615051980  MEOH      1981            0.0000000000
     35555      2673  MEOH      HO1            -7.6562294282       -5.2564290513      -33.5184327319  MEOH      1981            0.0000000000
     35556      2673  MEOH      HO2            -7.6880559599       -6.5957107419      -34.5554609740  MEOH      1981            0.0000000000
     35557      2673  MEOH      H1A            -9.5268392953       -7.4489066292      -33.5441565791  MEOH      1981            0.0000000000
     35558      2673  MEOH      H1B            -9.4887371142       -6.0678887448      -32.3833691298  MEOH      1981            0.0000000000
     35559      2673  MEOH      H1C            -8.1584599523       -7.3086548377      -32.3651019486  MEOH      1981            0.0000000000
     35560      2673  MEOH      LP1A           -7.8202279981       -6.1041013421      -34.0194759092  MEOH      1981            0.0000000000
     35561      2673  MEOH      LP1B           -8.3392217089       -5.7064554602      -34.0906965565  MEOH      1981            0.0000000000
     35562      2674  MEOH      C1            -12.8332781918       28.3768458574        3.4131778617  MEOH      1982            0.0000000000
     35563      2674  MEOH      DC1           -12.8449893690       28.3758804871        3.4309065099  MEOH      1982            0.0000000000
     35564      2674  MEOH      O1            -11.6931414145       27.6058067184        3.0394495375  MEOH      1982            0.0000000000
     35565      2674  MEOH      DO1           -11.7061405482       27.6022978510        3.0571096777  MEOH      1982            0.0000000000
     35566      2674  MEOH      HO1           -10.9219866878       28.1924994595        2.9945940466  MEOH      1982            0.0000000000
     35567      2674  MEOH      HO2           -11.7018322676       26.8057642780        3.5878623057  MEOH      1982            0.0000000000
     35568      2674  MEOH      H1A           -13.7516166513       27.7848095267        3.2120101249  MEOH      1982            0.0000000000
     35569      2674  MEOH      H1B           -12.8751353724       29.3130908708        2.8165085632  MEOH      1982            0.0000000000
     35570      2674  MEOH      H1C           -12.7763828921       28.6263647430        4.4942996174  MEOH      1982            0.0000000000
     35571      2674  MEOH      LP1A          -11.5370056986       27.4768835465        3.3249323810  MEOH      1982            0.0000000000
     35572      2674  MEOH      LP1B          -11.6644144158       27.5958662090        2.6907721137  MEOH      1982            0.0000000000
     35573      2675  MEOH      C1            -14.7640813288      -36.8458669965      -29.4163806858  MEOH      1983            0.0000000000
     35574      2675  MEOH      DC1           -14.7647706198      -36.8382781480      -29.4188335628  MEOH      1983            0.0000000000
     35575      2675  MEOH      O1            -13.5877965137      -37.2290884295      -30.1376367846  MEOH      1983            0.0000000000
     35576      2675  MEOH      DO1           -13.5880095304      -37.2205844003      -30.1359305034  MEOH      1983            0.0000000000
     35577      2675  MEOH      HO1           -13.5582177431      -36.7592695318      -30.9857495727  MEOH      1983            0.0000000000
     35578      2675  MEOH      HO2           -12.8524043002      -37.1768100518      -29.5072676360  MEOH      1983            0.0000000000
     35579      2675  MEOH      H1A           -14.8694461474      -37.4921133502      -28.5188368678  MEOH      1983            0.0000000000
     35580      2675  MEOH      H1B           -15.6684785196      -36.9795408427      -30.0476635267  MEOH      1983            0.0000000000
     35581      2675  MEOH      H1C           -14.6892002934      -35.7873250100      -29.0874389070  MEOH      1983            0.0000000000
     35582      2675  MEOH      LP1A          -13.3211215131      -37.0192517816      -30.0518870019  MEOH      1983            0.0000000000
     35583      2675  MEOH      LP1B          -13.6548243454      -37.5099922150      -30.3353748262  MEOH      1983            0.0000000000
     35584      2676  MEOH      C1            -29.1219627461       25.3537886996        9.1970750783  MEOH      1984            0.0000000000
     35585      2676  MEOH      DC1           -29.1100678293       25.3546556486        9.1817038436  MEOH      1984            0.0000000000
     35586      2676  MEOH      O1            -29.5938287740       24.4801538946       10.2207549076  MEOH      1984            0.0000000000
     35587      2676  MEOH      DO1           -29.5974398641       24.4842908553       10.2039857285  MEOH      1984            0.0000000000
     35588      2676  MEOH      HO1           -29.8161189437       23.6230602999        9.8246770738  MEOH      1984            0.0000000000
     35589      2676  MEOH      HO2           -28.9261567993       24.5185898878       10.9233478266  MEOH      1984            0.0000000000
     35590      2676  MEOH      H1A           -28.8039904413       26.3162127084        9.6519977550  MEOH      1984            0.0000000000
     35591      2676  MEOH      H1B           -29.9255431781       25.5701479154        8.4610260449  MEOH      1984            0.0000000000
     35592      2676  MEOH      H1C           -28.2672061467       24.8691571962        8.6785729456  MEOH      1984            0.0000000000
     35593      2676  MEOH      LP1A          -29.3252856670       24.3068387616       10.3633959408  MEOH      1984            0.0000000000
     35594      2676  MEOH      LP1B          -29.9401079364       24.5151184461       10.2577443910  MEOH      1984            0.0000000000
     35595      2677  MEOH      C1            -36.2111840857        9.4294033953       27.6866064450  MEOH      1985            0.0000000000
     35596      2677  MEOH      DC1           -36.2035197187        9.4303221939       27.6776129055  MEOH      1985            0.0000000000
     35597      2677  MEOH      O1            -36.6922776418       10.5985528289       27.0101301893  MEOH      1985            0.0000000000
     35598      2677  MEOH      DO1           -36.6889046813       10.5980555096       27.0067065900  MEOH      1985            0.0000000000
     35599      2677  MEOH      HO1           -37.1231683910       11.1757197536       27.6598312783  MEOH      1985            0.0000000000
     35600      2677  MEOH      HO2           -36.0223415868       10.8913956602       26.3726909699  MEOH      1985            0.0000000000
     35601      2677  MEOH      H1A           -35.9846603512        8.6424384961       26.9358107034  MEOH      1985            0.0000000000
     35602      2677  MEOH      H1B           -37.0005614214        9.0306582577       28.3590696313  MEOH      1985            0.0000000000
     35603      2677  MEOH      H1C           -35.3039772692        9.6581686119       28.2857418799  MEOH      1985            0.0000000000
     35604      2677  MEOH      LP1A          -36.4435843207       10.8447765525       27.0050794478  MEOH      1985            0.0000000000
     35605      2677  MEOH      LP1B          -37.0172131478       10.5434793907       26.8923005099  MEOH      1985            0.0000000000
     35606      2678  MEOH      C1            -16.2128920023       15.2125387594        8.3465086303  MEOH      1986            0.0000000000
     35607      2678  MEOH      DC1           -16.2182979251       15.2088286905        8.3371689553  MEOH      1986            0.0000000000
     35608      2678  MEOH      O1            -15.4445801607       16.2840488956        7.8008255751  MEOH      1986            0.0000000000
     35609      2678  MEOH      DO1           -15.4444645186       16.2815765415        7.7969259773  MEOH      1986            0.0000000000
     35610      2678  MEOH      HO1           -14.6251390631       16.3353911428        8.3173333314  MEOH      1986            0.0000000000
     35611      2678  MEOH      HO2           -15.4224810575       16.1357322188        6.8424864947  MEOH      1986            0.0000000000
     35612      2678  MEOH      H1A           -17.2307356715       15.1983993878        7.9014071326  MEOH      1986            0.0000000000
     35613      2678  MEOH      H1B           -16.3045200634       15.3558594776        9.4444086570  MEOH      1986            0.0000000000
     35614      2678  MEOH      H1C           -15.7131041426       14.2397145376        8.1511982912  MEOH      1986            0.0000000000
     35615      2678  MEOH      LP1A          -15.2398658374       16.1653486213        7.5429451944  MEOH      1986            0.0000000000
     35616      2678  MEOH      LP1B          -15.5286443422       16.5845131618        7.9594270824  MEOH      1986            0.0000000000
     35617      2679  MEOH      C1             15.1904754087       32.7025515892       25.4814877531  MEOH      1987            0.0000000000
     35618      2679  MEOH      DC1            15.1858251877       32.6904786551       25.4858355585  MEOH      1987            0.0000000000
     35619      2679  MEOH      O1             14.3214854322       32.5500658993       26.6070663100  MEOH      1987            0.0000000000
     35620      2679  MEOH      DO1            14.3106120463       32.5390538383       26.6149462217  MEOH      1987            0.0000000000
     35621      2679  MEOH      HO1            14.7959311368       31.9898224507       27.2410446627  MEOH      1987            0.0000000000
     35622      2679  MEOH      HO2            14.0622253289       33.4494798379       26.8615044489  MEOH      1987            0.0000000000
     35623      2679  MEOH      H1A            14.7386575700       33.3977478043       24.7419717876  MEOH      1987            0.0000000000
     35624      2679  MEOH      H1B            15.3645130060       31.7255230395       24.9820409295  MEOH      1987            0.0000000000
     35625      2679  MEOH      H1C            16.1683784526       33.1136323346       25.8116986828  MEOH      1987            0.0000000000
     35626      2679  MEOH      LP1A           14.3766032102       32.8083774219       26.8367120977  MEOH      1987            0.0000000000
     35627      2679  MEOH      LP1B           14.1130225239       32.2727763523       26.5606580888  MEOH      1987            0.0000000000
     35628      2680  MEOH      C1            -15.3473444570      -28.7509199000       24.7536293784  MEOH      1988            0.0000000000
     35629      2680  MEOH      DC1           -15.3342091548      -28.7596926674       24.7422218326  MEOH      1988            0.0000000000
     35630      2680  MEOH      O1            -16.6006378938      -29.2947054589       24.3948906777  MEOH      1988            0.0000000000
     35631      2680  MEOH      DO1           -16.5863189265      -29.3147716233       24.3913948182  MEOH      1988            0.0000000000
     35632      2680  MEOH      HO1           -16.5152820797      -29.8615239324       23.6123747334  MEOH      1988            0.0000000000
     35633      2680  MEOH      HO2           -17.0257418672      -29.5857633320       25.2167616693  MEOH      1988            0.0000000000
     35634      2680  MEOH      H1A           -15.5098152242      -27.9606368466       25.5174205447  MEOH      1988            0.0000000000
     35635      2680  MEOH      H1B           -14.8565959371      -28.3035105408       23.8629488770  MEOH      1988            0.0000000000
     35636      2680  MEOH      H1C           -14.7127443580      -29.5403077193       25.2102151723  MEOH      1988            0.0000000000
     35637      2680  MEOH      LP1A          -16.6523396746      -29.5973434823       24.5629298178  MEOH      1988            0.0000000000
     35638      2680  MEOH      LP1B          -16.7662730364      -29.0787321784       24.1748439971  MEOH      1988            0.0000000000
     35639      2681  MEOH      C1            -28.2908474489       -4.8395494289        6.9523540542  MEOH      1989            0.0000000000
     35640      2681  MEOH      DC1           -28.2933949314       -4.8477562072        6.9492852946  MEOH      1989            0.0000000000
     35641      2681  MEOH      O1            -27.9670519406       -3.4771491082        7.2046131548  MEOH      1989            0.0000000000
     35642      2681  MEOH      DO1           -27.9724818148       -3.4812895248        7.1987065923  MEOH      1989            0.0000000000
     35643      2681  MEOH      HO1           -27.4988571785       -3.1284299518        6.4299592872  MEOH      1989            0.0000000000
     35644      2681  MEOH      HO2           -28.7896195264       -3.0690079862        7.5171885726  MEOH      1989            0.0000000000
     35645      2681  MEOH      H1A           -28.7154009042       -5.3105599559        7.8646174198  MEOH      1989            0.0000000000
     35646      2681  MEOH      H1B           -27.3591138309       -5.3826694698        6.6854943781  MEOH      1989            0.0000000000
     35647      2681  MEOH      H1C           -29.0322757651       -4.9125454020        6.1281716473  MEOH      1989            0.0000000000
     35648      2681  MEOH      LP1A          -28.2290702652       -3.2703603125        7.0993288181  MEOH      1989            0.0000000000
     35649      2681  MEOH      LP1B          -27.6555258774       -3.4554304292        7.3626631816  MEOH      1989            0.0000000000
     35650      2682  MEOH      C1              2.4390295625       28.7569439683        6.8343729069  MEOH      1990            0.0000000000
     35651      2682  MEOH      DC1             2.4336891977       28.7513369939        6.8396799944  MEOH      1990            0.0000000000
     35652      2682  MEOH      O1              1.6311635226       27.7720400628        7.4846157410  MEOH      1990            0.0000000000
     35653      2682  MEOH      DO1             1.6166647045       27.7735772437        7.4884737822  MEOH      1990            0.0000000000
     35654      2682  MEOH      HO1             0.8824467598       27.6002963637        6.8923089700  MEOH      1990            0.0000000000
     35655      2682  MEOH      HO2             2.2373250219       27.0449716549        7.6963697680  MEOH      1990            0.0000000000
     35656      2682  MEOH      H1A             3.2712281127       29.0751277126        7.4980939923  MEOH      1990            0.0000000000
     35657      2682  MEOH      H1B             1.8220064703       29.6373637950        6.5542578718  MEOH      1990            0.0000000000
     35658      2682  MEOH      H1C             2.8985153341       28.3268665412        5.9188254027  MEOH      1990            0.0000000000
     35659      2682  MEOH      LP1A            1.7388457122       27.4511282019        7.3956206650  MEOH      1990            0.0000000000
     35660      2682  MEOH      LP1B            1.3955837730       27.9278899823        7.6912869392  MEOH      1990            0.0000000000
     35661      2683  MEOH      C1              5.9004308887       -9.8617037117       17.0984528505  MEOH      1991            0.0000000000
     35662      2683  MEOH      DC1             5.8968827643       -9.8788278947       17.0991707986  MEOH      1991            0.0000000000
     35663      2683  MEOH      O1              5.6316607668      -11.1113425561       16.4683551894  MEOH      1991            0.0000000000
     35664      2683  MEOH      DO1             5.6172356881      -11.1194332483       16.4732124494  MEOH      1991            0.0000000000
     35665      2683  MEOH      HO1             5.7792421992      -10.9854874403       15.5179446402  MEOH      1991            0.0000000000
     35666      2683  MEOH      HO2             6.1608614749      -11.7655991468       16.9508434525  MEOH      1991            0.0000000000
     35667      2683  MEOH      H1A             5.6138370429       -9.9015813430       18.1711106440  MEOH      1991            0.0000000000
     35668      2683  MEOH      H1B             5.3281513746       -9.0563524755       16.5902928900  MEOH      1991            0.0000000000
     35669      2683  MEOH      H1C             6.9839791992       -9.6231397688       17.0407353965  MEOH      1991            0.0000000000
     35670      2683  MEOH      LP1A            5.9228507677      -11.3052514877       16.4579768646  MEOH      1991            0.0000000000
     35671      2683  MEOH      LP1B            5.2928338970      -11.1319890602       16.3830904596  MEOH      1991            0.0000000000
     35672      2684  MEOH      C1            -10.4643673994        6.5948093706      -13.1483681534  MEOH      1992            0.0000000000
     35673      2684  MEOH      DC1           -10.4770894482        6.5861464672      -13.1474060320  MEOH      1992            0.0000000000
     35674      2684  MEOH      O1             -9.7102842302        7.8052300634      -13.1690303640  MEOH      1992            0.0000000000
     35675      2684  MEOH      DO1            -9.7174648446        7.7943405636      -13.1655857434  MEOH      1992            0.0000000000
     35676      2684  MEOH      HO1           -10.0748066139        8.3836594890      -13.8571021866  MEOH      1992            0.0000000000
     35677      2684  MEOH      HO2            -9.6663881372        8.1037937564      -12.2471665702  MEOH      1992            0.0000000000
     35678      2684  MEOH      H1A           -10.0047092582        5.8912137266      -12.4217399379  MEOH      1992            0.0000000000
     35679      2684  MEOH      H1B           -10.4512329116        6.1277634183      -14.1563446232  MEOH      1992            0.0000000000
     35680      2684  MEOH      H1C           -11.5114292869        6.8000889408      -12.8387834262  MEOH      1992            0.0000000000
     35681      2684  MEOH      LP1A           -9.8494857021        8.0368012132      -12.9465494597  MEOH      1992            0.0000000000
     35682      2684  MEOH      LP1B           -9.4379170516        7.7728878030      -13.3864472405  MEOH      1992            0.0000000000
     35683      2685  MEOH      C1            -25.9692701055       -6.4070708433        8.8041828588  MEOH      1993            0.0000000000
     35684      2685  MEOH      DC1           -25.9738066582       -6.4294078576        8.7958373004  MEOH      1993            0.0000000000
     35685      2685  MEOH      O1            -25.9321325139       -5.1155518260        9.3962920129  MEOH      1993            0.0000000000
     35686      2685  MEOH      DO1           -25.9386520762       -5.1335073016        9.3998229531  MEOH      1993            0.0000000000
     35687      2685  MEOH      HO1           -25.0061652115       -4.8460082013        9.5003630932  MEOH      1993            0.0000000000
     35688      2685  MEOH      HO2           -26.5357889387       -4.5590194564        8.8797935692  MEOH      1993            0.0000000000
     35689      2685  MEOH      H1A           -27.0264708456       -6.7473334040        8.7747042790  MEOH      1993            0.0000000000
     35690      2685  MEOH      H1B           -25.3764595059       -7.1236476091        9.4119775051  MEOH      1993            0.0000000000
     35691      2685  MEOH      H1C           -25.5598068096       -6.3533279725        7.7727893775  MEOH      1993            0.0000000000
     35692      2685  MEOH      LP1A          -25.9410882882       -4.8695124551        9.1475262154  MEOH      1993            0.0000000000
     35693      2685  MEOH      LP1B          -25.9283947285       -5.1438527119        9.7451259115  MEOH      1993            0.0000000000
     35694      2686  MEOH      C1            -16.2960914079       25.1122019526        3.0130677730  MEOH      1994            0.0000000000
     35695      2686  MEOH      DC1           -16.2982980915       25.1187159289        3.0371962255  MEOH      1994            0.0000000000
     35696      2686  MEOH      O1            -17.0413025592       25.3862785262        4.1986663139  MEOH      1994            0.0000000000
     35697      2686  MEOH      DO1           -17.0372114891       25.4018829140        4.2149375856  MEOH      1994            0.0000000000
     35698      2686  MEOH      HO1           -17.9757949227       25.3463769927        3.9416996010  MEOH      1994            0.0000000000
     35699      2686  MEOH      HO2           -16.7083590024       24.7680393869        4.8678665490  MEOH      1994            0.0000000000
     35700      2686  MEOH      H1A           -15.2066053225       25.1444298624        3.2282477707  MEOH      1994            0.0000000000
     35701      2686  MEOH      H1B           -16.5271139521       25.8697643106        2.2339343697  MEOH      1994            0.0000000000
     35702      2686  MEOH      H1C           -16.5564428149       24.1057841488        2.6210711536  MEOH      1994            0.0000000000
     35703      2686  MEOH      LP1A          -17.1046395080       25.0887180149        4.3717159400  MEOH      1994            0.0000000000
     35704      2686  MEOH      LP1B          -17.0932120107       25.7309468301        4.2304337362  MEOH      1994            0.0000000000
     35705      2687  MEOH      C1              9.5935172575       10.5356084606       -3.3558314385  MEOH      1995            0.0000000000
     35706      2687  MEOH      DC1             9.5942696230       10.5481601377       -3.3263656164  MEOH      1995            0.0000000000
     35707      2687  MEOH      O1              8.7961841560       11.1973689077       -2.3736641144  MEOH      1995            0.0000000000
     35708      2687  MEOH      DO1             8.7866425603       11.1974419762       -2.3487106607  MEOH      1995            0.0000000000
     35709      2687  MEOH      HO1             9.4061783794       11.7753490621       -1.8891581924  MEOH      1995            0.0000000000
     35710      2687  MEOH      HO2             8.0606876204       11.5893188503       -2.8699705614  MEOH      1995            0.0000000000
     35711      2687  MEOH      H1A             8.9562883830        9.8548630754       -3.9598563403  MEOH      1995            0.0000000000
     35712      2687  MEOH      H1B            10.3677887847        9.9088652137       -2.8638786899  MEOH      1995            0.0000000000
     35713      2687  MEOH      H1C            10.0719670828       11.2761974934       -4.0318008534  MEOH      1995            0.0000000000
     35714      2687  MEOH      LP1A            8.6637892809       11.4929677536       -2.5063024172  MEOH      1995            0.0000000000
     35715      2687  MEOH      LP1B            8.7855897797       11.0071247676       -2.0800743899  MEOH      1995            0.0000000000
     35716      2688  MEOH      C1             -9.3035506253      -10.5921022230       16.1791057606  MEOH      1996            0.0000000000
     35717      2688  MEOH      DC1            -9.3088458826      -10.6078667568       16.1860103166  MEOH      1996            0.0000000000
     35718      2688  MEOH      O1             -9.0941707429       -9.6409586659       15.1433810211  MEOH      1996            0.0000000000
     35719      2688  MEOH      DO1            -9.0938202942       -9.6581070929       15.1486128371  MEOH      1996            0.0000000000
     35720      2688  MEOH      HO1            -8.9970736351      -10.1038121022       14.2964814703  MEOH      1996            0.0000000000
     35721      2688  MEOH      HO2            -9.7913597363       -8.9763479927       15.2579242906  MEOH      1996            0.0000000000
     35722      2688  MEOH      H1A            -9.3102177962      -10.0626956848       17.1558376934  MEOH      1996            0.0000000000
     35723      2688  MEOH      H1B            -8.4879067349      -11.3464367398       16.1841536909  MEOH      1996            0.0000000000
     35724      2688  MEOH      H1C           -10.2834133757      -11.0979096637       16.0436479321  MEOH      1996            0.0000000000
     35725      2688  MEOH      LP1A           -9.4016181866       -9.5372190901       15.0121782401  MEOH      1996            0.0000000000
     35726      2688  MEOH      LP1B           -8.7520876881       -9.5760206370       15.1078530601  MEOH      1996            0.0000000000
     35727      2689  MEOH      C1            -20.8470518766      -18.9836151706      -24.8470774441  MEOH      1997            0.0000000000
     35728      2689  MEOH      DC1           -20.8437957105      -18.9821236119      -24.8549277856  MEOH      1997            0.0000000000
     35729      2689  MEOH      O1            -21.1534727146      -19.4067957142      -26.1720456926  MEOH      1997            0.0000000000
     35730      2689  MEOH      DO1           -21.1424540699      -19.3951722244      -26.1782477392  MEOH      1997            0.0000000000
     35731      2689  MEOH      HO1           -20.3712457920      -19.8690930189      -26.5116075332  MEOH      1997            0.0000000000
     35732      2689  MEOH      HO2           -21.9746951916      -19.9142890336      -26.0774720420  MEOH      1997            0.0000000000
     35733      2689  MEOH      H1A           -21.7615544702      -18.5640756153      -24.3759165709  MEOH      1997            0.0000000000
     35734      2689  MEOH      H1B           -20.0597941741      -18.1996895657      -24.8444400650  MEOH      1997            0.0000000000
     35735      2689  MEOH      H1C           -20.4990955165      -19.8551737580      -24.2524069459  MEOH      1997            0.0000000000
     35736      2689  MEOH      LP1A          -21.3011953999      -19.7240207395      -26.1652418977  MEOH      1997            0.0000000000
     35737      2689  MEOH      LP1B          -21.0677025483      -19.1560306063      -26.4006508964  MEOH      1997            0.0000000000
     35738      2690  MEOH      C1            -12.5499876099       10.1813843547       18.6627728510  MEOH      1998            0.0000000000
     35739      2690  MEOH      DC1           -12.5474151615       10.1792928539       18.6671504310  MEOH      1998            0.0000000000
     35740      2690  MEOH      O1            -12.7819491792        9.6013235097       19.9415582975  MEOH      1998            0.0000000000
     35741      2690  MEOH      DO1           -12.7782994210        9.6104963406       19.9480936021  MEOH      1998            0.0000000000
     35742      2690  MEOH      HO1           -13.7089447064        9.7872607505       20.1583684337  MEOH      1998            0.0000000000
     35743      2690  MEOH      HO2           -12.5008386781        8.6768157036       19.8569284963  MEOH      1998            0.0000000000
     35744      2690  MEOH      H1A           -11.5038717157       10.0007515791       18.3351536567  MEOH      1998            0.0000000000
     35745      2690  MEOH      H1B           -12.7360762340       11.2763759375       18.6889541224  MEOH      1998            0.0000000000
     35746      2690  MEOH      H1C           -13.2397001670        9.7072048308       17.9321762673  MEOH      1998            0.0000000000
     35747      2690  MEOH      LP1A          -12.8861800149        9.2691856895       19.9052209709  MEOH      1998            0.0000000000
     35748      2690  MEOH      LP1B          -12.7058584842        9.8322360850       20.1933311886  MEOH      1998            0.0000000000
     35749      2691  MEOH      C1            -34.2125853065      -27.9384829664      -14.4668063514  MEOH      1999            0.0000000000
     35750      2691  MEOH      DC1           -34.1971250004      -27.9281819557      -14.4567563536  MEOH      1999            0.0000000000
     35751      2691  MEOH      O1            -33.2452349121      -28.9795862479      -14.2950725375  MEOH      1999            0.0000000000
     35752      2691  MEOH      DO1           -33.2368386778      -28.9770595179      -14.2754862331  MEOH      1999            0.0000000000
     35753      2691  MEOH      HO1           -32.5890483893      -28.8927068425      -15.0041361567  MEOH      1999            0.0000000000
     35754      2691  MEOH      HO2           -33.0008274920      -28.9793277074      -13.3563686719  MEOH      1999            0.0000000000
     35755      2691  MEOH      H1A           -35.0903808400      -28.1521377990      -13.8201630065  MEOH      1999            0.0000000000
     35756      2691  MEOH      H1B           -34.5670901161      -27.9004014193      -15.5190407056  MEOH      1999            0.0000000000
     35757      2691  MEOH      H1C           -33.7775167705      -26.9539584819      -14.1915829721  MEOH      1999            0.0000000000
     35758      2691  MEOH      LP1A          -32.9873568306      -28.8699754562      -14.0853480291  MEOH      1999            0.0000000000
     35759      2691  MEOH      LP1B          -33.3469994054      -29.2670666393      -14.4668253030  MEOH      1999            0.0000000000
     35760      2692  MEOH      C1             34.6474747552      -32.1722930599       -5.5853568131  MEOH      2000            0.0000000000
     35761      2692  MEOH      DC1            34.6424202898      -32.1496071266       -5.5738915003  MEOH      2000            0.0000000000
     35762      2692  MEOH      O1             34.7083136569      -30.9754474090       -6.3486716536  MEOH      2000            0.0000000000
     35763      2692  MEOH      DO1            34.7114815701      -30.9576800442       -6.3458936630  MEOH      2000            0.0000000000
     35764      2692  MEOH      HO1            33.8791361236      -30.9462741037       -6.8511789037  MEOH      2000            0.0000000000
     35765      2692  MEOH      HO2            34.9772942469      -30.2644037078       -5.7462048089  MEOH      2000            0.0000000000
     35766      2692  MEOH      H1A            35.6514783421      -32.4471177946       -5.1970667629  MEOH      2000            0.0000000000
     35767      2692  MEOH      H1B            34.2566088191      -32.9691050683       -6.2536647087  MEOH      2000            0.0000000000
     35768      2692  MEOH      H1C            33.9295598717      -32.0692651264       -4.7437485512  MEOH      2000            0.0000000000
     35769      2692  MEOH      LP1A           34.5752052941      -30.7091758449       -6.1646020529  MEOH      2000            0.0000000000
     35770      2692  MEOH      LP1B           34.8619927833      -31.0377271731       -6.6568987730  MEOH      2000            0.0000000000
     35771      2693  MEOH      C1             -6.6124291569      -11.4882114202       11.1033518754  MEOH      2001            0.0000000000
     35772      2693  MEOH      DC1            -6.6172278866      -11.4911705394       11.1021040481  MEOH      2001            0.0000000000
     35773      2693  MEOH      O1             -5.9576037285      -11.7581032613       12.3427993182  MEOH      2001            0.0000000000
     35774      2693  MEOH      DO1            -5.9655616006      -11.7662615651       12.3380214531  MEOH      2001            0.0000000000
     35775      2693  MEOH      HO1            -5.0081855040      -11.8404623799       12.1619070546  MEOH      2001            0.0000000000
     35776      2693  MEOH      HO2            -6.2489993395      -11.0565817350       12.9460042138  MEOH      2001            0.0000000000
     35777      2693  MEOH      H1A            -7.7015847352      -11.3415772363       11.2663228675  MEOH      2001            0.0000000000
     35778      2693  MEOH      H1B            -6.4636338898      -12.3465374938       10.4138177427  MEOH      2001            0.0000000000
     35779      2693  MEOH      H1C            -6.1980978751      -10.5724468200       10.6300382523  MEOH      2001            0.0000000000
     35780      2693  MEOH      LP1A           -5.8701457994      -11.4577976504       12.4998587041  MEOH      2001            0.0000000000
     35781      2693  MEOH      LP1B           -5.9453562695      -12.1033402381       12.3990259097  MEOH      2001            0.0000000000
     35782      2694  MEOH      C1            -33.7261493286      -25.7418659207      -31.0925130954  MEOH      2002            0.0000000000
     35783      2694  MEOH      DC1           -33.7265838940      -25.7491223988      -31.0886664999  MEOH      2002            0.0000000000
     35784      2694  MEOH      O1            -32.8994527196      -25.2157943327      -30.0533373136  MEOH      2002            0.0000000000
     35785      2694  MEOH      DO1           -32.8954077870      -25.2246617672      -30.0565477219  MEOH      2002            0.0000000000
     35786      2694  MEOH      HO1           -32.9481679365      -24.2485197073      -30.1072504594  MEOH      2002            0.0000000000
     35787      2694  MEOH      HO2           -33.1658837614      -25.6736974126      -29.2407862264  MEOH      2002            0.0000000000
     35788      2694  MEOH      H1A           -33.6375312045      -26.8491301832      -31.1133381053  MEOH      2002            0.0000000000
     35789      2694  MEOH      H1B           -33.4070184801      -25.3339165930      -32.0753934793  MEOH      2002            0.0000000000
     35790      2694  MEOH      H1C           -34.7870135368      -25.4689593932      -30.9070133392  MEOH      2002            0.0000000000
     35791      2694  MEOH      LP1A          -33.0857971033      -25.1785456408      -29.7594184377  MEOH      2002            0.0000000000
     35792      2694  MEOH      LP1B          -32.5718602982      -25.1755352790      -30.1697950914  MEOH      2002            0.0000000000
     35793      2695  MEOH      C1              3.0884890840       11.3802265633       -3.7959740441  MEOH      2003            0.0000000000
     35794      2695  MEOH      DC1             3.1004654444       11.3827262395       -3.7657719704  MEOH      2003            0.0000000000
     35795      2695  MEOH      O1              3.9278164743       11.9238243131       -2.7701939427  MEOH      2003            0.0000000000
     35796      2695  MEOH      DO1             3.9227868497       11.9275767332       -2.7357084162  MEOH      2003            0.0000000000
     35797      2695  MEOH      HO1             4.7224981977       12.2117932416       -3.2460666735  MEOH      2003            0.0000000000
     35798      2695  MEOH      HO2             3.3832449331       12.5758880680       -2.3020543310  MEOH      2003            0.0000000000
     35799      2695  MEOH      H1A             2.1038226306       11.0726212148       -3.3835035274  MEOH      2003            0.0000000000
     35800      2695  MEOH      H1B             3.5678269494       10.4979855516       -4.2715862904  MEOH      2003            0.0000000000
     35801      2695  MEOH      H1C             2.9129482491       12.1470654458       -4.5804895274  MEOH      2003            0.0000000000
     35802      2695  MEOH      LP1A            3.8588262062       12.2642224437       -2.7269567420  MEOH      2003            0.0000000000
     35803      2695  MEOH      LP1B            4.1290603778       11.6718463083       -2.6341499191  MEOH      2003            0.0000000000
     35804      2696  MEOH      C1             24.7956125096      -19.4618616855      -24.1476497270  MEOH      2004            0.0000000000
     35805      2696  MEOH      DC1            24.7996616676      -19.4489101139      -24.1378258022  MEOH      2004            0.0000000000
     35806      2696  MEOH      O1             25.0565918051      -20.4785144266      -25.0943871248  MEOH      2004            0.0000000000
     35807      2696  MEOH      DO1            25.0660331449      -20.4585560194      -25.0939472613  MEOH      2004            0.0000000000
     35808      2696  MEOH      HO1            24.3485427013      -21.1393258625      -25.0405845894  MEOH      2004            0.0000000000
     35809      2696  MEOH      HO2            25.3001726641      -20.0310688786      -25.9198329729  MEOH      2004            0.0000000000
     35810      2696  MEOH      H1A            25.7340622547      -18.8678212240      -24.1202817521  MEOH      2004            0.0000000000
     35811      2696  MEOH      H1B            24.5855979637      -19.8897790572      -23.1441052009  MEOH      2004            0.0000000000
     35812      2696  MEOH      H1C            23.9535917170      -18.8159356102      -24.4764376389  MEOH      2004            0.0000000000
     35813      2696  MEOH      LP1A           24.9113664511      -20.3958470495      -25.4019187513  MEOH      2004            0.0000000000
     35814      2696  MEOH      LP1B           25.2555705575      -20.7278991758      -24.9504610919  MEOH      2004            0.0000000000
     35815      2697  MEOH      C1              8.8122641446      -12.4547195421      -25.7010986821  MEOH      2005            0.0000000000
     35816      2697  MEOH      DC1             8.8096141884      -12.4528021564      -25.6874957671  MEOH      2005            0.0000000000
     35817      2697  MEOH      O1              8.7656430103      -12.0738060195      -24.3239404062  MEOH      2005            0.0000000000
     35818      2697  MEOH      DO1             8.7708938709      -12.0687122833      -24.3176987182  MEOH      2005            0.0000000000
     35819      2697  MEOH      HO1             7.8378231400      -11.8760488971      -24.1215981000  MEOH      2005            0.0000000000
     35820      2697  MEOH      HO2             9.1929081014      -12.8029299109      -23.8477861311  MEOH      2005            0.0000000000
     35821      2697  MEOH      H1A             9.8368207232      -12.7686648183      -25.9944298616  MEOH      2005            0.0000000000
     35822      2697  MEOH      H1B             8.4895983759      -11.6142928669      -26.3521676540  MEOH      2005            0.0000000000
     35823      2697  MEOH      H1C             8.1511602765      -13.3327886392      -25.8631398395  MEOH      2005            0.0000000000
     35824      2697  MEOH      LP1A            8.7190838571      -12.3565921616      -24.1230318620  MEOH      2005            0.0000000000
     35825      2697  MEOH      LP1B            8.8157437971      -11.7287580650      -24.2934146752  MEOH      2005            0.0000000000
     35826      2698  MEOH      C1             35.8246812142       15.6834057838       14.8839621892  MEOH      2006            0.0000000000
     35827      2698  MEOH      DC1            35.8161388288       15.6907344768       14.9025575711  MEOH      2006            0.0000000000
     35828      2698  MEOH      O1             35.3788043125       16.7569068846       15.7107449422  MEOH      2006            0.0000000000
     35829      2698  MEOH      DO1            35.3683365808       16.7562307162       15.7260248732  MEOH      2006            0.0000000000
     35830      2698  MEOH      HO1            36.0391432231       17.4585300500       15.5985956804  MEOH      2006            0.0000000000
     35831      2698  MEOH      HO2            34.4630451743       16.9211256247       15.4363047707  MEOH      2006            0.0000000000
     35832      2698  MEOH      H1A            35.1376189778       14.8138061115       14.9618267724  MEOH      2006            0.0000000000
     35833      2698  MEOH      H1B            36.8456139563       15.3628998870       15.1827820480  MEOH      2006            0.0000000000
     35834      2698  MEOH      H1C            35.8571950935       16.0247387071       13.8271955718  MEOH      2006            0.0000000000
     35835      2698  MEOH      LP1A           35.1642155025       16.9660965180       15.5299374757  MEOH      2006            0.0000000000
     35836      2698  MEOH      LP1B           35.5094697710       16.7216512728       16.0335197551  MEOH      2006            0.0000000000
     35837      2699  MEOH      C1             17.4917074937       -9.2091350418       13.2706593852  MEOH      2007            0.0000000000
     35838      2699  MEOH      DC1            17.4976178124       -9.2214385565       13.2634049542  MEOH      2007            0.0000000000
     35839      2699  MEOH      O1             18.1907015978      -10.1320515310       12.4348577626  MEOH      2007            0.0000000000
     35840      2699  MEOH      DO1            18.1890133527      -10.1410971368       12.4192560368  MEOH      2007            0.0000000000
     35841      2699  MEOH      HO1            18.1683580535       -9.7447094415       11.5458319634  MEOH      2007            0.0000000000
     35842      2699  MEOH      HO2            19.0373091654      -10.2971964856       12.8785725044  MEOH      2007            0.0000000000
     35843      2699  MEOH      H1A            17.4326969965       -9.6034204168       14.3076636303  MEOH      2007            0.0000000000
     35844      2699  MEOH      H1B            16.4587891974       -9.0845465985       12.8809434435  MEOH      2007            0.0000000000
     35845      2699  MEOH      H1C            17.9986117414       -8.2205674547       13.2808186382  MEOH      2007            0.0000000000
     35846      2699  MEOH      LP1A           18.5321216126      -10.0551292646       12.4309413383  MEOH      2007            0.0000000000
     35847      2699  MEOH      LP1B           17.9683120136      -10.3705302592       12.3076934239  MEOH      2007            0.0000000000
     35848      2700  MEOH      C1            -17.6251228287       28.6116965695       10.4743904809  MEOH      2008            0.0000000000
     35849      2700  MEOH      DC1           -17.6226419364       28.6099812068       10.4782810277  MEOH      2008            0.0000000000
     35850      2700  MEOH      O1            -19.0208858243       28.9228683523       10.4864014436  MEOH      2008            0.0000000000
     35851      2700  MEOH      DO1           -19.0193760134       28.9198831615       10.4878946228  MEOH      2008            0.0000000000
     35852      2700  MEOH      HO1           -19.1255319996       29.8248220337       10.1451848919  MEOH      2008            0.0000000000
     35853      2700  MEOH      HO2           -19.4604713329       28.1809672315       10.0422761149  MEOH      2008            0.0000000000
     35854      2700  MEOH      H1A           -17.4617441464       27.6137708090       10.9345780347  MEOH      2008            0.0000000000
     35855      2700  MEOH      H1B           -17.0568952413       29.3776144047       11.0443100179  MEOH      2008            0.0000000000
     35856      2700  MEOH      H1C           -17.2509052101       28.5805617824        9.4287744905  MEOH      2008            0.0000000000
     35857      2700  MEOH      LP1A          -19.1679850604       28.8248621883       10.1843143592  MEOH      2008            0.0000000000
     35858      2700  MEOH      LP1B          -19.1097394049       29.0625603814       10.7947700189  MEOH      2008            0.0000000000
     35859      2701  MEOH      C1             27.0375284306       35.3658040049      -11.1819317792  MEOH      2009            0.0000000000
     35860      2701  MEOH      DC1            27.0187874692       35.3743955534      -11.2008103895  MEOH      2009            0.0000000000
     35861      2701  MEOH      O1             28.0534712881       34.5100118551      -11.7023287573  MEOH      2009            0.0000000000
     35862      2701  MEOH      DO1            28.0412932432       34.5251484348      -11.7280980931  MEOH      2009            0.0000000000
     35863      2701  MEOH      HO1            28.8859048078       34.7894784462      -11.2901966671  MEOH      2009            0.0000000000
     35864      2701  MEOH      HO2            27.7386446353       33.6082746581      -11.5330532192  MEOH      2009            0.0000000000
     35865      2701  MEOH      H1A            26.0424808610       35.0305412186      -11.5449747504  MEOH      2009            0.0000000000
     35866      2701  MEOH      H1B            27.2264047772       36.4069784208      -11.5204617799  MEOH      2009            0.0000000000
     35867      2701  MEOH      H1C            27.0636693141       35.3637866109      -10.0712411897  MEOH      2009            0.0000000000
     35868      2701  MEOH      LP1A           28.0834314316       34.2243786339      -11.5022886295  MEOH      2009            0.0000000000
     35869      2701  MEOH      LP1B           28.1861444028       34.6465467597      -11.9960225851  MEOH      2009            0.0000000000
     35870      2702  MEOH      C1            -12.0274852042       24.3701654784      -22.3067273961  MEOH      2010            0.0000000000
     35871      2702  MEOH      DC1           -12.0173877154       24.3731127933      -22.3201649735  MEOH      2010            0.0000000000
     35872      2702  MEOH      O1            -11.5415146788       23.0576215842      -22.0163729939  MEOH      2010            0.0000000000
     35873      2702  MEOH      DO1           -11.5432024195       23.0625398035      -22.0230851829  MEOH      2010            0.0000000000
     35874      2702  MEOH      HO1           -11.5307029185       22.5323688378      -22.8317824979  MEOH      2010            0.0000000000
     35875      2702  MEOH      HO2           -10.7301916808       23.1758339995      -21.4980286895  MEOH      2010            0.0000000000
     35876      2702  MEOH      H1A           -12.1825866222       24.9197517530      -21.3537218990  MEOH      2010            0.0000000000
     35877      2702  MEOH      H1B           -12.9998007543       24.3138068197      -22.8412806420  MEOH      2010            0.0000000000
     35878      2702  MEOH      H1C           -11.2922698796       24.9245690771      -22.9283511392  MEOH      2010            0.0000000000
     35879      2702  MEOH      LP1A          -11.1929612950       23.0495079754      -22.0471090970  MEOH      2010            0.0000000000
     35880      2702  MEOH      LP1B          -11.8074427112       22.8487944867      -21.9259654448  MEOH      2010            0.0000000000
     35881      2703  MEOH      C1             25.9512716238       -7.0421956229        3.3006684435  MEOH      2011            0.0000000000
     35882      2703  MEOH      DC1            25.9405372737       -7.0476124072        3.2968996295  MEOH      2011            0.0000000000
     35883      2703  MEOH      O1             26.6619829137       -6.5050848974        4.4181235912  MEOH      2011            0.0000000000
     35884      2703  MEOH      DO1            26.6592782377       -6.5112842913        4.4143131944  MEOH      2011            0.0000000000
     35885      2703  MEOH      HO1            26.5132893439       -5.5466248727        4.4301487028  MEOH      2011            0.0000000000
     35886      2703  MEOH      HO2            26.4166858562       -7.0511862189        5.1813422371  MEOH      2011            0.0000000000
     35887      2703  MEOH      H1A            26.2117246238       -8.1156129651        3.1812513414  MEOH      2011            0.0000000000
     35888      2703  MEOH      H1B            26.2329860502       -6.4992647042        2.3732073926  MEOH      2011            0.0000000000
     35889      2703  MEOH      H1C            24.8578167558       -6.9477372417        3.4731650128  MEOH      2011            0.0000000000
     35890      2703  MEOH      LP1A           26.4581914113       -6.5088736395        4.7026489310  MEOH      2011            0.0000000000
     35891      2703  MEOH      LP1B           26.9885140256       -6.4218438890        4.3235277800  MEOH      2011            0.0000000000
     35892      2704  MEOH      C1            -13.9604097551      -16.8070987106      -31.8085965336  MEOH      2012            0.0000000000
     35893      2704  MEOH      DC1           -13.9689130328      -16.7867656124      -31.7905848765  MEOH      2012            0.0000000000
     35894      2704  MEOH      O1            -15.2571450688      -17.1888630137      -32.2542003081  MEOH      2012            0.0000000000
     35895      2704  MEOH      DO1           -15.2544109525      -17.1823725789      -32.2391354702  MEOH      2012            0.0000000000
     35896      2704  MEOH      HO1           -15.3335909893      -18.1506970330      -32.1545441919  MEOH      2012            0.0000000000
     35897      2704  MEOH      HO2           -15.8860580228      -16.5709855289      -31.8497303956  MEOH      2012            0.0000000000
     35898      2704  MEOH      H1A           -13.6832786930      -15.8363536495      -32.2724644050  MEOH      2012            0.0000000000
     35899      2704  MEOH      H1B           -13.2273061138      -17.5819890863      -32.1191202158  MEOH      2012            0.0000000000
     35900      2704  MEOH      H1C           -13.9258017381      -16.7285514391      -30.7009171525  MEOH      2012            0.0000000000
     35901      2704  MEOH      LP1A          -15.4841410686      -17.1746396316      -31.9881730322  MEOH      2012            0.0000000000
     35902      2704  MEOH      LP1B          -15.2506778245      -17.2563355020      -32.5975742123  MEOH      2012            0.0000000000
     35903      2705  MEOH      C1            -27.9202092472      -26.2233088813        9.6667843640  MEOH      2013            0.0000000000
     35904      2705  MEOH      DC1           -27.9114343560      -26.2277745356        9.6661302033  MEOH      2013            0.0000000000
     35905      2705  MEOH      O1            -26.8964868949      -26.9153958603       10.3859121647  MEOH      2013            0.0000000000
     35906      2705  MEOH      DO1           -26.8876430950      -26.9183205332       10.3834509242  MEOH      2013            0.0000000000
     35907      2705  MEOH      HO1           -27.1061038411      -27.8619346149       10.3538946402  MEOH      2013            0.0000000000
     35908      2705  MEOH      HO2           -26.0507028403      -26.5628479823       10.0676994565  MEOH      2013            0.0000000000
     35909      2705  MEOH      H1A           -27.8316518377      -25.1306230353        9.8471069355  MEOH      2013            0.0000000000
     35910      2705  MEOH      H1B           -28.9213314910      -26.5652666628       10.0061074109  MEOH      2013            0.0000000000
     35911      2705  MEOH      H1C           -27.8197108502      -26.4148753500        8.5770489098  MEOH      2013            0.0000000000
     35912      2705  MEOH      LP1A          -26.6334147361      -26.9976773903       10.1702207437  MEOH      2013            0.0000000000
     35913      2705  MEOH      LP1B          -26.9829367317      -26.9390138953       10.7242442709  MEOH      2013            0.0000000000
     35914      2706  MEOH      C1            -31.3461689734      -29.9529850023       26.4478689857  MEOH      2014            0.0000000000
     35915      2706  MEOH      DC1           -31.3469431085      -29.9624128369       26.4469920165  MEOH      2014            0.0000000000
     35916      2706  MEOH      O1            -32.5188226753      -29.1416139468       26.5451331269  MEOH      2014            0.0000000000
     35917      2706  MEOH      DO1           -32.5189308825      -29.1374843008       26.5346352339  MEOH      2014            0.0000000000
     35918      2706  MEOH      HO1           -33.2912179901      -29.6870435842       26.3287723406  MEOH      2014            0.0000000000
     35919      2706  MEOH      HO2           -32.4607671592      -28.6870054434       27.4000370195  MEOH      2014            0.0000000000
     35920      2706  MEOH      H1A           -30.4526485488      -29.3367712221       26.6849825219  MEOH      2014            0.0000000000
     35921      2706  MEOH      H1B           -31.2430315335      -30.3452265442       25.4135430016  MEOH      2014            0.0000000000
     35922      2706  MEOH      H1C           -31.4071397618      -30.7941862831       27.1710452923  MEOH      2014            0.0000000000
     35923      2706  MEOH      LP1A          -32.6444530804      -29.1514528785       26.8716606093  MEOH      2014            0.0000000000
     35924      2706  MEOH      LP1B          -32.5831412723      -28.9868631302       26.2378623947  MEOH      2014            0.0000000000
     35925      2707  MEOH      C1            -36.9527992130       36.0047005058      -22.0631977059  MEOH      2015            0.0000000000
     35926      2707  MEOH      DC1           -36.9645512937       36.0042681012      -22.0702861982  MEOH      2015            0.0000000000
     35927      2707  MEOH      O1            -36.6981863454       34.6534301814      -22.4576848015  MEOH      2015            0.0000000000
     35928      2707  MEOH      DO1           -36.7014336284       34.6564689603      -22.4680360492  MEOH      2015            0.0000000000
     35929      2707  MEOH      HO1           -37.5170816046       34.1379646850      -22.3898181950  MEOH      2015            0.0000000000
     35930      2707  MEOH      HO2           -36.1783303589       34.6941573527      -23.2756035332  MEOH      2015            0.0000000000
     35931      2707  MEOH      H1A           -35.9910650231       36.5495230005      -21.9511405875  MEOH      2015            0.0000000000
     35932      2707  MEOH      H1B           -37.4792177261       36.0347001166      -21.0852894420  MEOH      2015            0.0000000000
     35933      2707  MEOH      H1C           -37.5623553745       36.5078569586      -22.8439639139  MEOH      2015            0.0000000000
     35934      2707  MEOH      LP1A          -36.7455209695       34.6185086623      -22.8027064253  MEOH      2015            0.0000000000
     35935      2707  MEOH      LP1B          -36.5972430856       34.4648468109      -22.1806527263  MEOH      2015            0.0000000000
     35936      2708  MEOH      C1             -3.9451663978        1.4955224375      -20.9136548434  MEOH      2016            0.0000000000
     35937      2708  MEOH      DC1            -3.9310234355        1.4980944261      -20.9275839200  MEOH      2016            0.0000000000
     35938      2708  MEOH      O1             -3.4061627683        0.2064353428      -21.2218315398  MEOH      2016            0.0000000000
     35939      2708  MEOH      DO1            -3.3981470149        0.1987188653      -21.2135178653  MEOH      2016            0.0000000000
     35940      2708  MEOH      HO1            -4.0258420741       -0.2002877327      -21.8475102895  MEOH      2016            0.0000000000
     35941      2708  MEOH      HO2            -2.4955833461        0.3687816308      -21.5140451594  MEOH      2016            0.0000000000
     35942      2708  MEOH      H1A            -3.2596246476        2.0366557997      -20.2269757403  MEOH      2016            0.0000000000
     35943      2708  MEOH      H1B            -4.9315993043        1.3970476647      -20.4120834726  MEOH      2016            0.0000000000
     35944      2708  MEOH      H1C            -4.0822409322        2.0874948699      -21.8437624780  MEOH      2016            0.0000000000
     35945      2708  MEOH      LP1A           -3.1887035211        0.2298170255      -21.4950800947  MEOH      2016            0.0000000000
     35946      2708  MEOH      LP1B           -3.5245600036       -0.0306071693      -20.9931550388  MEOH      2016            0.0000000000
     35947      2709  MEOH      C1             26.2419213716        0.1252995176       14.6285797801  MEOH      2017            0.0000000000
     35948      2709  MEOH      DC1            26.2523484619        0.1155625605       14.6113116179  MEOH      2017            0.0000000000
     35949      2709  MEOH      O1             24.9512293443        0.3076591990       15.2128177609  MEOH      2017            0.0000000000
     35950      2709  MEOH      DO1            24.9603557764        0.2935020865       15.1965973889  MEOH      2017            0.0000000000
     35951      2709  MEOH      HO1            24.5967151557        1.1752351536       14.9627544605  MEOH      2017            0.0000000000
     35952      2709  MEOH      HO2            24.4550816565       -0.5094466240       15.0482712754  MEOH      2017            0.0000000000
     35953      2709  MEOH      H1A            26.7216717763       -0.7599345641       15.0981765981  MEOH      2017            0.0000000000
     35954      2709  MEOH      H1B            26.8777805798        1.0158599336       14.8206896791  MEOH      2017            0.0000000000
     35955      2709  MEOH      H1C            26.1572039845       -0.0344057804       13.5323871957  MEOH      2017            0.0000000000
     35956      2709  MEOH      LP1A           24.7040591744        0.1840799363       14.9980269954  MEOH      2017            0.0000000000
     35957      2709  MEOH      LP1B           24.9827968247        0.4514168084       15.5303665665  MEOH      2017            0.0000000000
     35958      2710  MEOH      C1            -21.8903250835       -7.8499537787       27.5002400477  MEOH      2018            0.0000000000
     35959      2710  MEOH      DC1           -21.9038418847       -7.8463280502       27.5120245003  MEOH      2018            0.0000000000
     35960      2710  MEOH      O1            -22.5301226028       -6.6785490839       28.0200816970  MEOH      2018            0.0000000000
     35961      2710  MEOH      DO1           -22.5642713140       -6.6746971136       28.0326763835  MEOH      2018            0.0000000000
     35962      2710  MEOH      HO1           -22.2845213191       -5.9738401582       27.4004323284  MEOH      2018            0.0000000000
     35963      2710  MEOH      HO2           -23.4500654754       -6.9243861569       28.2049309453  MEOH      2018            0.0000000000
     35964      2710  MEOH      H1A           -21.8834283658       -8.6560606597       28.2647432407  MEOH      2018            0.0000000000
     35965      2710  MEOH      H1B           -20.8403976760       -7.6148869882       27.2232616318  MEOH      2018            0.0000000000
     35966      2710  MEOH      H1C           -22.4226848122       -8.2059482692       26.5923953236  MEOH      2018            0.0000000000
     35967      2710  MEOH      LP1A          -22.8526678458       -6.6494364565       27.8873525702  MEOH      2018            0.0000000000
     35968      2710  MEOH      LP1B          -22.3188352772       -6.5180668039       28.2483427402  MEOH      2018            0.0000000000
     35969      2711  MEOH      C1             31.6331158668      -10.2587776812       25.0526304599  MEOH      2019            0.0000000000
     35970      2711  MEOH      DC1            31.6407559227      -10.2708652979       25.0612891762  MEOH      2019            0.0000000000
     35971      2711  MEOH      O1             30.3487112528       -9.9775653012       24.5160995273  MEOH      2019            0.0000000000
     35972      2711  MEOH      DO1            30.3638241391       -9.9857106010       24.5248027614  MEOH      2019            0.0000000000
     35973      2711  MEOH      HO1            30.1940055223      -10.5056485359       23.7172915179  MEOH      2019            0.0000000000
     35974      2711  MEOH      HO2            29.7329836008      -10.0084490282       25.2649824648  MEOH      2019            0.0000000000
     35975      2711  MEOH      H1A            31.8430991573       -9.5150183513       25.8507846295  MEOH      2019            0.0000000000
     35976      2711  MEOH      H1B            32.4138609912      -10.1671361651       24.2675445515  MEOH      2019            0.0000000000
     35977      2711  MEOH      H1C            31.6576215254      -11.2784440903       25.4930857775  MEOH      2019            0.0000000000
     35978      2711  MEOH      LP1A           30.1101640181      -10.1901924330       24.6588752944  MEOH      2019            0.0000000000
     35979      2711  MEOH      LP1B           30.3688226564       -9.7100200340       24.2913439680  MEOH      2019            0.0000000000
     35980      2712  MEOH      C1             -7.5936633527       36.0724544682       28.1813183070  MEOH      2020            0.0000000000
     35981      2712  MEOH      DC1            -7.5858418130       36.0649235431       28.1813654277  MEOH      2020            0.0000000000
     35982      2712  MEOH      O1             -6.4487388053       36.8951830804       27.9487274377  MEOH      2020            0.0000000000
     35983      2712  MEOH      DO1            -6.4451743733       36.8948842124       27.9517967029  MEOH      2020            0.0000000000
     35984      2712  MEOH      HO1            -6.6740792618       37.4898372626       27.2162603174  MEOH      2020            0.0000000000
     35985      2712  MEOH      HO2            -6.1943251731       37.2574035069       28.8118439230  MEOH      2020            0.0000000000
     35986      2712  MEOH      H1A            -7.3486319198       35.3011090583       28.9424404101  MEOH      2020            0.0000000000
     35987      2712  MEOH      H1B            -7.8978407209       35.5634574565       27.2417869499  MEOH      2020            0.0000000000
     35988      2712  MEOH      H1C            -8.4363769488       36.6914844319       28.5567603135  MEOH      2020            0.0000000000
     35989      2712  MEOH      LP1A           -6.4651330566       37.1823020913       28.1482115277  MEOH      2020            0.0000000000
     35990      2712  MEOH      LP1B           -6.2349435314       36.7405585648       27.7187647450  MEOH      2020            0.0000000000
     35991      2713  MEOH      C1              1.6919764921       -7.7936418664       -2.1059915907  MEOH      2021            0.0000000000
     35992      2713  MEOH      DC1             1.7011231697       -7.8055448925       -2.1015608235  MEOH      2021            0.0000000000
     35993      2713  MEOH      O1              3.0564153084       -8.2232140953       -2.0613870957  MEOH      2021            0.0000000000
     35994      2713  MEOH      DO1             3.0655882954       -8.2362628235       -2.0550617435  MEOH      2021            0.0000000000
     35995      2713  MEOH      HO1             3.2965318974       -8.4593010198       -2.9710612070  MEOH      2021            0.0000000000
     35996      2713  MEOH      HO2             3.5382059281       -7.5238867095       -1.5926451557  MEOH      2021            0.0000000000
     35997      2713  MEOH      H1A             1.3407179553       -7.5413508629       -1.0826208413  MEOH      2021            0.0000000000
     35998      2713  MEOH      H1B             1.0558759191       -8.6105349330       -2.5089590569  MEOH      2021            0.0000000000
     35999      2713  MEOH      H1C             1.5902895580       -6.8972861198       -2.7544722341  MEOH      2021            0.0000000000
     36000      2713  MEOH      LP1A            3.2696726139       -7.9493006475       -2.1060272652  MEOH      2021            0.0000000000
     36001      2713  MEOH      LP1B            3.0716408173       -8.5670833512       -1.9979669194  MEOH      2021            0.0000000000
     36002      2714  MEOH      C1             -3.9449825463      -26.7504608862       16.4032763338  MEOH      2022            0.0000000000
     36003      2714  MEOH      DC1            -3.9350680402      -26.7457614837       16.4194000629  MEOH      2022            0.0000000000
     36004      2714  MEOH      O1             -2.7423499136      -26.1612229004       16.8987688133  MEOH      2022            0.0000000000
     36005      2714  MEOH      DO1            -2.7290807303      -26.1578501146       16.9168538503  MEOH      2022            0.0000000000
     36006      2714  MEOH      HO1            -2.1152528842      -26.2625117291       16.1656999969  MEOH      2022            0.0000000000
     36007      2714  MEOH      HO2            -2.9966910692      -25.2736684802       17.1961872521  MEOH      2022            0.0000000000
     36008      2714  MEOH      H1A            -4.7389668701      -26.7364182552       17.1802658443  MEOH      2022            0.0000000000
     36009      2714  MEOH      H1B            -3.7582585283      -27.8005823018       16.0923098498  MEOH      2022            0.0000000000
     36010      2714  MEOH      H1C            -4.2993802024      -26.1739992580       15.5221320252  MEOH      2022            0.0000000000
     36011      2714  MEOH      LP1A           -2.7375067234      -25.8190909459       16.8251327542  MEOH      2022            0.0000000000
     36012      2714  MEOH      LP1B           -2.5508183786      -26.4021601806       17.0653968364  MEOH      2022            0.0000000000
     36013      2715  MEOH      C1              3.9455502923       25.5167328328       26.7755816149  MEOH      2023            0.0000000000
     36014      2715  MEOH      DC1             3.9319148087       25.5209082290       26.7959333990  MEOH      2023            0.0000000000
     36015      2715  MEOH      O1              3.5506448556       25.2318248631       28.1168826857  MEOH      2023            0.0000000000
     36016      2715  MEOH      DO1             3.5456046373       25.2429929089       28.1388204423  MEOH      2023            0.0000000000
     36017      2715  MEOH      HO1             2.6118510954       24.9947215837       28.0590180957  MEOH      2023            0.0000000000
     36018      2715  MEOH      HO2             4.1885804742       24.5730705960       28.4330803512  MEOH      2023            0.0000000000
     36019      2715  MEOH      H1A             5.0202529926       25.7946254799       26.7296383543  MEOH      2023            0.0000000000
     36020      2715  MEOH      H1B             3.3287560553       26.3414144610       26.3587050367  MEOH      2023            0.0000000000
     36021      2715  MEOH      H1C             3.7930227471       24.6156684250       26.1438069064  MEOH      2023            0.0000000000
     36022      2715  MEOH      LP1A            3.6051580538       24.8935820146       28.1884374663  MEOH      2023            0.0000000000
     36023      2715  MEOH      LP1B            3.4405254056       25.5245539513       28.2739921625  MEOH      2023            0.0000000000
     36024      2716  MEOH      C1            -16.5929953722       14.3018173315       -4.8941870823  MEOH      2024            0.0000000000
     36025      2716  MEOH      DC1           -16.5990732987       14.3085285560       -4.8925863401  MEOH      2024            0.0000000000
     36026      2716  MEOH      O1            -17.4966302517       14.2409792996       -3.7850114788  MEOH      2024            0.0000000000
     36027      2716  MEOH      DO1           -17.5018306250       14.2576840650       -3.7910037944  MEOH      2024            0.0000000000
     36028      2716  MEOH      HO1           -18.2023721254       13.6061775461       -3.9846490039  MEOH      2024            0.0000000000
     36029      2716  MEOH      HO2           -16.9454182328       14.1230193323       -2.9956124935  MEOH      2024            0.0000000000
     36030      2716  MEOH      H1A           -15.8068220840       15.0589627304       -4.6868626808  MEOH      2024            0.0000000000
     36031      2716  MEOH      H1B           -17.1284835846       14.5957637690       -5.8221789287  MEOH      2024            0.0000000000
     36032      2716  MEOH      H1C           -16.1095700376       13.3136349998       -5.0494823665  MEOH      2024            0.0000000000
     36033      2716  MEOH      LP1A          -17.3895379208       13.9984417577       -3.5565234629  MEOH      2024            0.0000000000
     36034      2716  MEOH      LP1B          -17.7484747213       14.4811275282       -3.8224706757  MEOH      2024            0.0000000000
     36035      2717  MEOH      C1             32.6535877352      -26.6285343433       16.4959028686  MEOH      2025            0.0000000000
     36036      2717  MEOH      DC1            32.6508685889      -26.6218154753       16.4976409330  MEOH      2025            0.0000000000
     36037      2717  MEOH      O1             31.5157411101      -26.0359010931       17.1282993591  MEOH      2025            0.0000000000
     36038      2717  MEOH      DO1            31.5209713819      -26.0299000130       17.1391949102  MEOH      2025            0.0000000000
     36039      2717  MEOH      HO1            31.2818273265      -25.2404970475       16.6247948943  MEOH      2025            0.0000000000
     36040      2717  MEOH      HO2            30.8628348973      -26.7498555462       17.1981743693  MEOH      2025            0.0000000000
     36041      2717  MEOH      H1A            32.9028625463      -27.6031688196       16.9673588122  MEOH      2025            0.0000000000
     36042      2717  MEOH      H1B            33.5402687688      -25.9680176619       16.6046937604  MEOH      2025            0.0000000000
     36043      2717  MEOH      H1C            32.4368971732      -26.8212364587       15.4234141290  MEOH      2025            0.0000000000
     36044      2717  MEOH      LP1A           31.2212609124      -26.1697108716       16.9945968673  MEOH      2025            0.0000000000
     36045      2717  MEOH      LP1B           31.6197737476      -25.8112614949       17.3757145189  MEOH      2025            0.0000000000
     36046      2718  MEOH      C1             -3.3954076961      -32.2563336546       18.3572550972  MEOH      2026            0.0000000000
     36047      2718  MEOH      DC1            -3.3959662867      -32.2554342941       18.3669415567  MEOH      2026            0.0000000000
     36048      2718  MEOH      O1             -2.2833798652      -32.9925108873       17.8632770918  MEOH      2026            0.0000000000
     36049      2718  MEOH      DO1            -2.2803457605      -33.0036539362       17.8774195162  MEOH      2026            0.0000000000
     36050      2718  MEOH      HO1            -1.4948675304      -32.4338765078       17.9473956309  MEOH      2026            0.0000000000
     36051      2718  MEOH      HO2            -2.3514433760      -33.9015320410       18.1948610189  MEOH      2026            0.0000000000
     36052      2718  MEOH      H1A            -4.3425926383      -32.7380520777       18.0330498436  MEOH      2026            0.0000000000
     36053      2718  MEOH      H1B            -3.3846634145      -31.2200563041       17.9568367992  MEOH      2026            0.0000000000
     36054      2718  MEOH      H1C            -3.3553652892      -32.2444687005       19.4674698648  MEOH      2026            0.0000000000
     36055      2718  MEOH      LP1A           -2.1396172180      -33.1799162816       18.1215628240  MEOH      2026            0.0000000000
     36056      2718  MEOH      LP1B           -2.2468467185      -32.9379037600       17.5194989790  MEOH      2026            0.0000000000
     36057      2719  MEOH      C1            -32.2990345130      -32.9350509668      -16.6659170670  MEOH      2027            0.0000000000
     36058      2719  MEOH      DC1           -32.2986714292      -32.9398441464      -16.6587530682  MEOH      2027            0.0000000000
     36059      2719  MEOH      O1            -32.7707868397      -31.6886028589      -17.1695206138  MEOH      2027            0.0000000000
     36060      2719  MEOH      DO1           -32.7669526000      -31.6887376037      -17.1526135129  MEOH      2027            0.0000000000
     36061      2719  MEOH      HO1           -33.6159956268      -31.4742453078      -16.7445818565  MEOH      2027            0.0000000000
     36062      2719  MEOH      HO2           -32.0200342441      -31.0752049573      -17.1376842411  MEOH      2027            0.0000000000
     36063      2719  MEOH      H1A           -31.4144233426      -33.2499208928      -17.2597529107  MEOH      2027            0.0000000000
     36064      2719  MEOH      H1B           -33.0945937849      -33.7048907327      -16.7594755049  MEOH      2027            0.0000000000
     36065      2719  MEOH      H1C           -31.9985545550      -32.8274198840      -15.6017515043  MEOH      2027            0.0000000000
     36066      2719  MEOH      LP1A          -32.6452410910      -31.4258252824      -16.9753912490  MEOH      2027            0.0000000000
     36067      2719  MEOH      LP1B          -32.9663381424      -31.7411313736      -17.4550034384  MEOH      2027            0.0000000000
     36068      2720  MEOH      C1             22.7359395743        0.9248746743      -29.9456486554  MEOH      2028            0.0000000000
     36069      2720  MEOH      DC1            22.7423890348        0.9391035195      -29.9370901576  MEOH      2028            0.0000000000
     36070      2720  MEOH      O1             23.6505772871        0.9708506313      -31.0419967746  MEOH      2028            0.0000000000
     36071      2720  MEOH      DO1            23.6568308549        0.9969732695      -31.0220494608  MEOH      2028            0.0000000000
     36072      2720  MEOH      HO1            24.4083586530        0.3987307786      -30.8436378164  MEOH      2028            0.0000000000
     36073      2720  MEOH      HO2            23.1166690741        0.7236626351      -31.8131907285  MEOH      2028            0.0000000000
     36074      2720  MEOH      H1A            21.7930766070        1.4413355580      -30.2260030428  MEOH      2028            0.0000000000
     36075      2720  MEOH      H1B            23.1631371523        1.3932303989      -29.0332528283  MEOH      2028            0.0000000000
     36076      2720  MEOH      H1C            22.4714834608       -0.1265595419      -29.7030171382  MEOH      2028            0.0000000000
     36077      2720  MEOH      LP1A           23.5686709178        0.7244062513      -31.2766380203  MEOH      2028            0.0000000000
     36078      2720  MEOH      LP1B           23.8788127081        1.2322848598      -30.9966014357  MEOH      2028            0.0000000000
     36079      2721  MEOH      C1             18.2840376428      -35.8930113872      -33.0901886501  MEOH      2029            0.0000000000
     36080      2721  MEOH      DC1            18.2821993435      -35.9159192737      -33.0881438780  MEOH      2029            0.0000000000
     36081      2721  MEOH      O1             19.6744269380      -35.8477982629      -33.4016134982  MEOH      2029            0.0000000000
     36082      2721  MEOH      DO1            19.6628426343      -35.8683636292      -33.3893712240  MEOH      2029            0.0000000000
     36083      2721  MEOH      HO1            20.0585374048      -35.0623452865      -32.9815863895  MEOH      2029            0.0000000000
     36084      2721  MEOH      HO2            20.0255716518      -36.7288805166      -33.1984105156  MEOH      2029            0.0000000000
     36085      2721  MEOH      H1A            17.8071151910      -36.7142635924      -33.6667394201  MEOH      2029            0.0000000000
     36086      2721  MEOH      H1B            17.7873129136      -34.9399001405      -33.3715505100  MEOH      2029            0.0000000000
     36087      2721  MEOH      H1C            18.1381006179      -36.0855315860      -32.0057720520  MEOH      2029            0.0000000000
     36088      2721  MEOH      LP1A           19.8567602713      -36.0252892325      -33.1612980570  MEOH      2029            0.0000000000
     36089      2721  MEOH      LP1B           19.7245542737      -35.6723945581      -33.7003119926  MEOH      2029            0.0000000000
     36090      2722  MEOH      C1             35.3242193779       -2.5278674296      -23.9029088080  MEOH      2030            0.0000000000
     36091      2722  MEOH      DC1            35.3292816405       -2.5309341984      -23.9117318469  MEOH      2030            0.0000000000
     36092      2722  MEOH      O1             34.0576953705       -2.9825629964      -23.4219046320  MEOH      2030            0.0000000000
     36093      2722  MEOH      DO1            34.0656439452       -2.9885684771      -23.4311475928  MEOH      2030            0.0000000000
     36094      2722  MEOH      HO1            33.3777732825       -2.8256100840      -24.0956788807  MEOH      2030            0.0000000000
     36095      2722  MEOH      HO2            34.1944310835       -3.8487509321      -23.0072700884  MEOH      2030            0.0000000000
     36096      2722  MEOH      H1A            36.0313160374       -2.4230923371      -23.0524045493  MEOH      2030            0.0000000000
     36097      2722  MEOH      H1B            35.2268529752       -1.5432442733      -24.4082384285  MEOH      2030            0.0000000000
     36098      2722  MEOH      H1C            35.7506847984       -3.2558376040      -24.6257557288  MEOH      2030            0.0000000000
     36099      2722  MEOH      LP1A           34.0122079800       -3.3195917283      -23.5046242255  MEOH      2030            0.0000000000
     36100      2722  MEOH      LP1B           33.8959123532       -2.7249858656      -23.2487564959  MEOH      2030            0.0000000000
     36101      2723  MEOH      C1             20.6349039896      -36.7819041247       25.6894181369  MEOH      2031            0.0000000000
     36102      2723  MEOH      DC1            20.6512514390      -36.7889028151       25.7058212375  MEOH      2031            0.0000000000
     36103      2723  MEOH      O1             21.0763332011      -36.7930918330       27.0534894133  MEOH      2031            0.0000000000
     36104      2723  MEOH      DO1            21.0892292020      -36.7937917801       27.0753860182  MEOH      2031            0.0000000000
     36105      2723  MEOH      HO1            21.9425884098      -36.3567652947       27.0424863874  MEOH      2031            0.0000000000
     36106      2723  MEOH      HO2            20.3402072932      -36.4257780718       27.5673952886  MEOH      2031            0.0000000000
     36107      2723  MEOH      H1A            19.7061082048      -37.3816754599       25.5801764974  MEOH      2031            0.0000000000
     36108      2723  MEOH      H1B            21.4304397570      -37.1968770079       25.0342530041  MEOH      2031            0.0000000000
     36109      2723  MEOH      H1C            20.4117366629      -35.7496299126       25.3445597661  MEOH      2031            0.0000000000
     36110      2723  MEOH      LP1A           20.9626174798      -36.5061222430       27.2184657423  MEOH      2031            0.0000000000
     36111      2723  MEOH      LP1B           21.2540951924      -37.0873025718       27.1193735210  MEOH      2031            0.0000000000
     36112      2724  MEOH      C1             22.2716328940       -7.8578115489       30.1982184905  MEOH      2032            0.0000000000
     36113      2724  MEOH      DC1            22.2800865558       -7.8745049719       30.1929836920  MEOH      2032            0.0000000000
     36114      2724  MEOH      O1             21.0816512383       -8.6093973606       29.9433540028  MEOH      2032            0.0000000000
     36115      2724  MEOH      DO1            21.0934983339       -8.6260421096       29.9372501094  MEOH      2032            0.0000000000
     36116      2724  MEOH      HO1            20.3282920551       -8.0282986520       30.1322302372  MEOH      2032            0.0000000000
     36117      2724  MEOH      HO2            21.1918056720       -9.0062486849       29.0651313496  MEOH      2032            0.0000000000
     36118      2724  MEOH      H1A            23.1533641163       -8.5325789180       30.1587210222  MEOH      2032            0.0000000000
     36119      2724  MEOH      H1B            22.2261813476       -7.3895526760       31.2046919302  MEOH      2032            0.0000000000
     36120      2724  MEOH      H1C            22.3886783067       -7.0559339975       29.4382094340  MEOH      2032            0.0000000000
     36121      2724  MEOH      LP1A           20.9867703343       -8.5734005783       29.6083885632  MEOH      2032            0.0000000000
     36122      2724  MEOH      LP1B           20.9837202514       -8.7802712932       30.2326836090  MEOH      2032            0.0000000000
     36123      2725  MEOH      C1             35.5941755595       35.0855498789      -16.8446827589  MEOH      2033            0.0000000000
     36124      2725  MEOH      DC1            35.5842330558       35.0809650409      -16.8494328884  MEOH      2033            0.0000000000
     36125      2725  MEOH      O1             36.9447878666       35.1259087710      -16.4162267960  MEOH      2033            0.0000000000
     36126      2725  MEOH      DO1            36.9348772224       35.1183025477      -16.4100317930  MEOH      2033            0.0000000000
     36127      2725  MEOH      HO1            37.4649495596       34.5936313026      -17.0383300911  MEOH      2033            0.0000000000
     36128      2725  MEOH      HO2            37.1793485185       36.0569715411      -16.2783739039  MEOH      2033            0.0000000000
     36129      2725  MEOH      H1A            34.9510509506       35.5314012312      -16.0560584444  MEOH      2033            0.0000000000
     36130      2725  MEOH      H1B            35.2838474003       34.0322173403      -17.0135258715  MEOH      2033            0.0000000000
     36131      2725  MEOH      H1C            35.5006126321       35.6751934346      -17.7816392452  MEOH      2033            0.0000000000
     36132      2725  MEOH      LP1A           37.1082514469       35.3993246173      -16.5612213921  MEOH      2033            0.0000000000
     36133      2725  MEOH      LP1B           37.0064401117       34.8660196094      -16.1900484939  MEOH      2033            0.0000000000
     36134      2726  MEOH      C1            -26.5755795584       30.0271558170        0.3394668111  MEOH      2034            0.0000000000
     36135      2726  MEOH      DC1           -26.5841719248       30.0352314527        0.3541208866  MEOH      2034            0.0000000000
     36136      2726  MEOH      O1            -27.3110015197       28.9828420668        0.9821963180  MEOH      2034            0.0000000000
     36137      2726  MEOH      DO1           -27.3347707257       29.0060799130        0.9995558258  MEOH      2034            0.0000000000
     36138      2726  MEOH      HO1           -26.7490834847       28.5512849173        1.6446965434  MEOH      2034            0.0000000000
     36139      2726  MEOH      HO2           -28.2161206021       29.2956840479        1.1364342586  MEOH      2034            0.0000000000
     36140      2726  MEOH      H1A           -26.9976930091       30.2073761672       -0.6722949503  MEOH      2034            0.0000000000
     36141      2726  MEOH      H1B           -25.5127447701       29.7297294385        0.2120275600  MEOH      2034            0.0000000000
     36142      2726  MEOH      H1C           -26.6290510374       30.9652278098        0.9323266067  MEOH      2034            0.0000000000
     36143      2726  MEOH      LP1A          -27.4814019578       29.1100362546        1.2601987088  MEOH      2034            0.0000000000
     36144      2726  MEOH      LP1B          -27.2728857672       28.6832385126        0.8053209390  MEOH      2034            0.0000000000
     36145      2727  MEOH      C1            -24.8464014400       23.1755031497       21.2398995461  MEOH      2035            0.0000000000
     36146      2727  MEOH      DC1           -24.8420146288       23.1689222147       21.2419006258  MEOH      2035            0.0000000000
     36147      2727  MEOH      O1            -25.7733518843       24.0998200086       20.6551736669  MEOH      2035            0.0000000000
     36148      2727  MEOH      DO1           -25.7724043339       24.0949908630       20.6580750380  MEOH      2035            0.0000000000
     36149      2727  MEOH      HO1           -25.7315838845       24.0006827096       19.6911574688  MEOH      2035            0.0000000000
     36150      2727  MEOH      HO2           -26.6128867855       23.9839979007       21.1270490645  MEOH      2035            0.0000000000
     36151      2727  MEOH      H1A           -24.7618652151       23.3824770178       22.3281717752  MEOH      2035            0.0000000000
     36152      2727  MEOH      H1B           -23.8414983630       23.3009826654       20.7830125814  MEOH      2035            0.0000000000
     36153      2727  MEOH      H1C           -25.1925673464       22.1299824682       21.0936919190  MEOH      2035            0.0000000000
     36154      2727  MEOH      LP1A          -26.0883881459       23.9503792578       20.6248484975  MEOH      2035            0.0000000000
     36155      2727  MEOH      LP1B          -25.6160612909       24.4072742677       20.5983269626  MEOH      2035            0.0000000000
     36156      2728  MEOH      C1             -4.8953618522       27.4841121875       28.8655305423  MEOH      2036            0.0000000000
     36157      2728  MEOH      DC1            -4.8779584565       27.4899020944       28.8708606632  MEOH      2036            0.0000000000
     36158      2728  MEOH      O1             -5.0842675761       28.8823033221       29.0953948565  MEOH      2036            0.0000000000
     36159      2728  MEOH      DO1            -5.0654206369       28.8842726086       29.1047599893  MEOH      2036            0.0000000000
     36160      2728  MEOH      HO1            -6.0342169774       29.0540399624       29.0005125015  MEOH      2036            0.0000000000
     36161      2728  MEOH      HO2            -4.6186385356       29.0949118283       29.9193409836  MEOH      2036            0.0000000000
     36162      2728  MEOH      H1A            -3.8090197359       27.2575758371       28.8120227084  MEOH      2036            0.0000000000
     36163      2728  MEOH      H1B            -5.3729164278       27.1834336087       27.9085273967  MEOH      2036            0.0000000000
     36164      2728  MEOH      H1C            -5.3547908903       26.8986369947       29.6904334202  MEOH      2036            0.0000000000
     36165      2728  MEOH      LP1A           -5.1370607118       28.9415149637       29.4362861388  MEOH      2036            0.0000000000
     36166      2728  MEOH      LP1B           -5.0518310481       29.0585032836       28.7947265256  MEOH      2036            0.0000000000
     36167      2729  MEOH      C1             26.6136904635      -19.2988135181       10.2104161218  MEOH      2037            0.0000000000
     36168      2729  MEOH      DC1            26.5999259467      -19.2908625370       10.2164144512  MEOH      2037            0.0000000000
     36169      2729  MEOH      O1             26.6129847533      -20.1739037222        9.0972079027  MEOH      2037            0.0000000000
     36170      2729  MEOH      DO1            26.6065874220      -20.1684037376        9.0998352206  MEOH      2037            0.0000000000
     36171      2729  MEOH      HO1            27.3653657439      -20.7776290684        9.1988865698  MEOH      2037            0.0000000000
     36172      2729  MEOH      HO2            25.7111830892      -20.5241862785        9.0268098177  MEOH      2037            0.0000000000
     36173      2729  MEOH      H1A            25.8179442370      -18.5356801772       10.0735349784  MEOH      2037            0.0000000000
     36174      2729  MEOH      H1B            27.5965760457      -18.7876619411       10.2939684866  MEOH      2037            0.0000000000
     36175      2729  MEOH      H1C            26.4339933977      -19.8861109034       11.1362194202  MEOH      2037            0.0000000000
     36176      2729  MEOH      LP1A           26.4171300250      -20.4555788200        9.1664904017  MEOH      2037            0.0000000000
     36177      2729  MEOH      LP1B           26.7993782712      -20.0349400412        8.8355849835  MEOH      2037            0.0000000000
     36178      2730  MEOH      C1             23.8421341277       33.2732986674        9.4776864943  MEOH      2038            0.0000000000
     36179      2730  MEOH      DC1            23.8489036326       33.2598715824        9.4746810012  MEOH      2038            0.0000000000
     36180      2730  MEOH      O1             24.9524713294       33.6642240572       10.2869460843  MEOH      2038            0.0000000000
     36181      2730  MEOH      DO1            24.9563984244       33.6473005468       10.2881852780  MEOH      2038            0.0000000000
     36182      2730  MEOH      HO1            25.7584947227       33.6055630686        9.7504899558  MEOH      2038            0.0000000000
     36183      2730  MEOH      HO2            24.7000457459       34.5305758429       10.6427773766  MEOH      2038            0.0000000000
     36184      2730  MEOH      H1A            22.9091677145       33.3802192033       10.0713721615  MEOH      2038            0.0000000000
     36185      2730  MEOH      H1B            23.9404497260       32.2160529551        9.1507514138  MEOH      2038            0.0000000000
     36186      2730  MEOH      H1C            23.7605235607       33.9377261479        8.5910090782  MEOH      2038            0.0000000000
     36187      2730  MEOH      LP1A           25.0013926468       34.0100330147       10.2640797419  MEOH      2038            0.0000000000
     36188      2730  MEOH      LP1B           25.0825601025       33.3857123698       10.4543024439  MEOH      2038            0.0000000000
     36189      2731  MEOH      C1              3.1804943388      -22.1906743874       15.0688935691  MEOH      2039            0.0000000000
     36190      2731  MEOH      DC1             3.1633393277      -22.1953592991       15.0704002350  MEOH      2039            0.0000000000
     36191      2731  MEOH      O1              1.9453039705      -22.6165103398       14.4899432196  MEOH      2039            0.0000000000
     36192      2731  MEOH      DO1             1.9306683378      -22.6170397139       14.4943137077  MEOH      2039            0.0000000000
     36193      2731  MEOH      HO1             1.6667095313      -23.4142282239       14.9663163044  MEOH      2039            0.0000000000
     36194      2731  MEOH      HO2             1.3828353282      -21.8272376272       14.4502240539  MEOH      2039            0.0000000000
     36195      2731  MEOH      H1A             3.6661000615      -21.4211286865       14.4314710260  MEOH      2039            0.0000000000
     36196      2731  MEOH      H1B             3.8673741050      -23.0572700946       15.1762670653  MEOH      2039            0.0000000000
     36197      2731  MEOH      H1C             2.9930236678      -21.7400248133       16.0669370095  MEOH      2039            0.0000000000
     36198      2731  MEOH      LP1A            1.6770401597      -22.4616739274       14.6529162641  MEOH      2039            0.0000000000
     36199      2731  MEOH      LP1B            2.0070272532      -22.8338630751       14.2226455862  MEOH      2039            0.0000000000
     36200      2732  MEOH      C1            -14.4075813167      -26.4706228344      -28.6907723972  MEOH      2040            0.0000000000
     36201      2732  MEOH      DC1           -14.4046236461      -26.4792545591      -28.6990299291  MEOH      2040            0.0000000000
     36202      2732  MEOH      O1            -14.8193634283      -26.6163390779      -27.3309302955  MEOH      2040            0.0000000000
     36203      2732  MEOH      DO1           -14.8140532738      -26.6217842974      -27.3349378931  MEOH      2040            0.0000000000
     36204      2732  MEOH      HO1           -14.2459581558      -27.2766919310      -26.9113584865  MEOH      2040            0.0000000000
     36205      2732  MEOH      HO2           -14.8649864876      -25.7161261636      -26.9725516608  MEOH      2040            0.0000000000
     36206      2732  MEOH      H1A           -15.0966337303      -25.7681131807      -29.2065319902  MEOH      2040            0.0000000000
     36207      2732  MEOH      H1B           -14.4412650362      -27.4542722136      -29.2061560475  MEOH      2040            0.0000000000
     36208      2732  MEOH      H1C           -13.3792966964      -26.0520443247      -28.7325308849  MEOH      2040            0.0000000000
     36209      2732  MEOH      LP1A          -14.6490037447      -26.3867611332      -27.1290106445  MEOH      2040            0.0000000000
     36210      2732  MEOH      LP1B          -15.0669703761      -26.8625030966      -27.3065566357  MEOH      2040            0.0000000000
     36211      2733  MEOH      C1             20.4709347353       19.4232831226       15.5762828437  MEOH      2041            0.0000000000
     36212      2733  MEOH      DC1            20.4701959621       19.4219267652       15.5930174729  MEOH      2041            0.0000000000
     36213      2733  MEOH      O1             20.5456647629       20.5411776214       14.6907086717  MEOH      2041            0.0000000000
     36214      2733  MEOH      DO1            20.5284080384       20.5329160834       14.6943233500  MEOH      2041            0.0000000000
     36215      2733  MEOH      HO1            21.4296283283       20.5492200973       14.2914046101  MEOH      2041            0.0000000000
     36216      2733  MEOH      HO2            19.7477821777       20.5030509817       14.1404089894  MEOH      2041            0.0000000000
     36217      2733  MEOH      H1A            19.5896178889       19.5200920432       16.2457823954  MEOH      2041            0.0000000000
     36218      2733  MEOH      H1B            21.3951260524       19.3667794696       16.1902850803  MEOH      2041            0.0000000000
     36219      2733  MEOH      H1C            20.3479859017       18.4837001052       14.9962928961  MEOH      2041            0.0000000000
     36220      2733  MEOH      LP1A           20.4368705715       20.4483227520       14.3712688540  MEOH      2041            0.0000000000
     36221      2733  MEOH      LP1B           20.6561807569       20.8242642282       14.8643410077  MEOH      2041            0.0000000000
     36222      2734  MEOH      C1             29.0241319367      -11.4187624648      -15.6270660408  MEOH      2042            0.0000000000
     36223      2734  MEOH      DC1            29.0233134503      -11.4180435170      -15.6089953451  MEOH      2042            0.0000000000
     36224      2734  MEOH      O1             28.3950579358      -11.8097817978      -16.8466854445  MEOH      2042            0.0000000000
     36225      2734  MEOH      DO1            28.3774604102      -11.8089166257      -16.8260280730  MEOH      2042            0.0000000000
     36226      2734  MEOH      HO1            29.0935066687      -11.9481620292      -17.5054116999  MEOH      2042            0.0000000000
     36227      2734  MEOH      HO2            27.7712174797      -12.5167888216      -16.6189484172  MEOH      2042            0.0000000000
     36228      2734  MEOH      H1A            28.2511572252      -11.1554545587      -14.8737400530  MEOH      2042            0.0000000000
     36229      2734  MEOH      H1B            29.6630585141      -10.5266624302      -15.8009952146  MEOH      2042            0.0000000000
     36230      2734  MEOH      H1C            29.6410230889      -12.2613894206      -15.2479273859  MEOH      2042            0.0000000000
     36231      2734  MEOH      LP1A           28.3592784670      -12.1578039533      -16.8567058673  MEOH      2042            0.0000000000
     36232      2734  MEOH      LP1B           28.3150138961      -11.5266452636      -17.0362287238  MEOH      2042            0.0000000000
     36233      2735  MEOH      C1            -19.3768945911        5.6125826032       17.9070195496  MEOH      2043            0.0000000000
     36234      2735  MEOH      DC1           -19.3901205090        5.6146423796       17.9240615081  MEOH      2043            0.0000000000
     36235      2735  MEOH      O1            -18.3289488727        4.7459201957       18.3411128761  MEOH      2043            0.0000000000
     36236      2735  MEOH      DO1           -18.3292481740        4.7588980792       18.3546493492  MEOH      2043            0.0000000000
     36237      2735  MEOH      HO1           -18.2763195841        4.0195228159       17.7004280822  MEOH      2043            0.0000000000
     36238      2735  MEOH      HO2           -17.5654998357        5.3214706869       18.5047808326  MEOH      2043            0.0000000000
     36239      2735  MEOH      H1A           -19.6154824524        6.3481747318       18.7047043578  MEOH      2043            0.0000000000
     36240      2735  MEOH      H1B           -20.2721143555        5.0004168935       17.6658645842  MEOH      2043            0.0000000000
     36241      2735  MEOH      H1C           -19.0724204231        6.1607997765       16.9899184573  MEOH      2043            0.0000000000
     36242      2735  MEOH      LP1A          -18.0238142079        4.8491485822       18.2042306767  MEOH      2043            0.0000000000
     36243      2735  MEOH      LP1B          -18.4563884376        4.5041904997       18.5598042371  MEOH      2043            0.0000000000
     36244      2736  MEOH      C1            -24.4405336899        8.9536410275       -5.1056609178  MEOH      2044            0.0000000000
     36245      2736  MEOH      DC1           -24.4537759224        8.9432426049       -5.0968273062  MEOH      2044            0.0000000000
     36246      2736  MEOH      O1            -25.1752396057        8.0751422960       -4.2529352306  MEOH      2044            0.0000000000
     36247      2736  MEOH      DO1           -25.1748532110        8.0672586511       -4.2311062405  MEOH      2044            0.0000000000
     36248      2736  MEOH      HO1           -26.0900512408        8.1100920785       -4.5735567919  MEOH      2044            0.0000000000
     36249      2736  MEOH      HO2           -24.6886771301        7.2363726060       -4.2778824652  MEOH      2044            0.0000000000
     36250      2736  MEOH      H1A           -23.3693946930        8.9981027963       -4.8141040608  MEOH      2044            0.0000000000
     36251      2736  MEOH      H1B           -24.8512903386        9.9830703514       -5.0290107851  MEOH      2044            0.0000000000
     36252      2736  MEOH      H1C           -24.5073372578        8.6153707014       -6.1618008098  MEOH      2044            0.0000000000
     36253      2736  MEOH      LP1A          -25.1700047846        7.7501630623       -4.3827855071  MEOH      2044            0.0000000000
     36254      2736  MEOH      LP1B          -25.2940654181        8.2504415854       -3.9742766843  MEOH      2044            0.0000000000
     36255      2737  MEOH      C1             15.0764439774       12.8582958871      -36.5929428679  MEOH      2045            0.0000000000
     36256      2737  MEOH      DC1            15.0707475966       12.8748792525      -36.6030393096  MEOH      2045            0.0000000000
     36257      2737  MEOH      O1             15.8006430006       14.0922896024      -36.5916175488  MEOH      2045            0.0000000000
     36258      2737  MEOH      DO1            15.7963454477       14.1064494023      -36.5943549811  MEOH      2045            0.0000000000
     36259      2737  MEOH      HO1            16.5315749847       14.0015607127      -37.2228122124  MEOH      2045            0.0000000000
     36260      2737  MEOH      HO2            15.1459102850       14.8058105135      -36.6474116496  MEOH      2045            0.0000000000
     36261      2737  MEOH      H1A            14.4156338095       12.8093193900      -35.7011737125  MEOH      2045            0.0000000000
     36262      2737  MEOH      H1B            15.7772481921       11.9973230738      -36.5491220031  MEOH      2045            0.0000000000
     36263      2737  MEOH      H1C            14.4656126123       12.7700966233      -37.5167539597  MEOH      2045            0.0000000000
     36264      2737  MEOH      LP1A           15.6641739939       14.3114329622      -36.8279486683  MEOH      2045            0.0000000000
     36265      2737  MEOH      LP1B           16.0510504157       14.0838688922      -36.3472301143  MEOH      2045            0.0000000000
     36266      2738  MEOH      C1            -31.4383025512       26.3277692109       33.9413006487  MEOH      2046            0.0000000000
     36267      2738  MEOH      DC1           -31.4283178831       26.3227920620       33.9268226331  MEOH      2046            0.0000000000
     36268      2738  MEOH      O1            -31.1349404975       26.2872218902       35.3327345228  MEOH      2046            0.0000000000
     36269      2738  MEOH      DO1           -31.1280536670       26.2820148718       35.3220590257  MEOH      2046            0.0000000000
     36270      2738  MEOH      HO1           -31.2238685794       27.1920302536       35.6708374991  MEOH      2046            0.0000000000
     36271      2738  MEOH      HO2           -31.6912112752       25.5803621909       35.6957940049  MEOH      2046            0.0000000000
     36272      2738  MEOH      H1A           -31.3262990528       25.3164475935       33.4952011045  MEOH      2046            0.0000000000
     36273      2738  MEOH      H1B           -30.7567669997       27.0467682278       33.4384381371  MEOH      2046            0.0000000000
     36274      2738  MEOH      H1C           -32.4851225528       26.6683143094       33.7912409184  MEOH      2046            0.0000000000
     36275      2738  MEOH      LP1A          -31.4254050413       26.2218156542       35.5167246669  MEOH      2046            0.0000000000
     36276      2738  MEOH      LP1B          -30.7916431465       26.3345088994       35.3818351085  MEOH      2046            0.0000000000
     36277      2739  MEOH      C1             -4.2298871171       27.0473876183       23.0574394550  MEOH      2047            0.0000000000
     36278      2739  MEOH      DC1            -4.2417018764       27.0376626459       23.0575304574  MEOH      2047            0.0000000000
     36279      2739  MEOH      O1             -5.4548558438       26.3114363691       23.0134681416  MEOH      2047            0.0000000000
     36280      2739  MEOH      DO1            -5.4607511460       26.2987929662       23.0149996090  MEOH      2047            0.0000000000
     36281      2739  MEOH      HO1            -5.9089904921       26.5798860860       22.1994678519  MEOH      2047            0.0000000000
     36282      2739  MEOH      HO2            -5.2181478287       25.3838567351       23.1698821377  MEOH      2047            0.0000000000
     36283      2739  MEOH      H1A            -3.7240395513       26.8850227664       24.0331837328  MEOH      2047            0.0000000000
     36284      2739  MEOH      H1B            -4.4332102002       28.1346953123       22.9537924470  MEOH      2047            0.0000000000
     36285      2739  MEOH      H1C            -3.5513342744       26.7181742478       22.2416541906  MEOH      2047            0.0000000000
     36286      2739  MEOH      LP1A           -5.4049848992       26.0055959680       22.8507581605  MEOH      2047            0.0000000000
     36287      2739  MEOH      LP1B           -5.7071662725       26.4889705176       23.1787590176  MEOH      2047            0.0000000000
     36288      2740  MEOH      C1             -2.9038177909       -0.5499549321      -31.6767910337  MEOH      2048            0.0000000000
     36289      2740  MEOH      DC1            -2.8999433886       -0.5589109422      -31.6701031858  MEOH      2048            0.0000000000
     36290      2740  MEOH      O1             -3.4908383817       -1.1694840755      -30.5319296640  MEOH      2048            0.0000000000
     36291      2740  MEOH      DO1            -3.4887745204       -1.1772880968      -30.5259109906  MEOH      2048            0.0000000000
     36292      2740  MEOH      HO1            -3.0557242455       -2.0290773790      -30.4193461774  MEOH      2048            0.0000000000
     36293      2740  MEOH      HO2            -3.4516206257       -0.5094636471      -29.8221867515  MEOH      2048            0.0000000000
     36294      2740  MEOH      H1A            -3.4061420238        0.4200859693      -31.8793052667  MEOH      2048            0.0000000000
     36295      2740  MEOH      H1B            -3.0128905958       -1.2050596154      -32.5674435918  MEOH      2048            0.0000000000
     36296      2740  MEOH      H1C            -1.8233222584       -0.3655750021      -31.4955330779  MEOH      2048            0.0000000000
     36297      2740  MEOH      LP1A           -3.3164138387       -1.0767544594      -30.2430052844  MEOH      2048            0.0000000000
     36298      2740  MEOH      LP1B           -3.7705156305       -1.3569700848      -30.6274787762  MEOH      2048            0.0000000000
     36299      2741  MEOH      C1             17.9004137889        3.4652092287      -33.6186861947  MEOH      2049            0.0000000000
     36300      2741  MEOH      DC1            17.9143392507        3.4693225576      -33.6122519787  MEOH      2049            0.0000000000
     36301      2741  MEOH      O1             19.1713659212        4.0356133463      -33.3340856603  MEOH      2049            0.0000000000
     36302      2741  MEOH      DO1            19.1810467306        4.0417560848      -33.3257581974  MEOH      2049            0.0000000000
     36303      2741  MEOH      HO1            19.0699700982        4.9955716192      -33.4294743462  MEOH      2049            0.0000000000
     36304      2741  MEOH      HO2            19.4624227533        3.6400629958      -32.4975894905  MEOH      2049            0.0000000000
     36305      2741  MEOH      H1A            17.9680713458        2.3563717188      -33.6336137706  MEOH      2049            0.0000000000
     36306      2741  MEOH      H1B            17.5309427497        3.8202535339      -34.6044628897  MEOH      2049            0.0000000000
     36307      2741  MEOH      H1C            17.1866862406        3.7704643330      -32.8238696689  MEOH      2049            0.0000000000
     36308      2741  MEOH      LP1A           19.1990481937        4.1013640563      -32.9914334519  MEOH      2049            0.0000000000
     36309      2741  MEOH      LP1B           19.3619778829        4.0554229603      -33.6269587715  MEOH      2049            0.0000000000
     36310      2742  MEOH      C1            -25.1438322198      -25.0591783283       -7.0862061356  MEOH      2050            0.0000000000
     36311      2742  MEOH      DC1           -25.1545374045      -25.0655555974       -7.0768890012  MEOH      2050            0.0000000000
     36312      2742  MEOH      O1            -24.7849995982      -25.7491943776       -5.8869851957  MEOH      2050            0.0000000000
     36313      2742  MEOH      DO1           -24.7925193596      -25.7546115778       -5.8795148151  MEOH      2050            0.0000000000
     36314      2742  MEOH      HO1           -23.8953934350      -26.1058833774       -6.0362294004  MEOH      2050            0.0000000000
     36315      2742  MEOH      HO2           -24.9398205632      -25.1223924423       -5.1630723538  MEOH      2050            0.0000000000
     36316      2742  MEOH      H1A           -26.1671278371      -24.6361126349       -6.9956384895  MEOH      2050            0.0000000000
     36317      2742  MEOH      H1B           -25.1397019165      -25.7609517824       -7.9474946830  MEOH      2050            0.0000000000
     36318      2742  MEOH      H1C           -24.4245249261      -24.2346659901       -7.2788130461  MEOH      2050            0.0000000000
     36319      2742  MEOH      LP1A          -24.6289393914      -25.5288936581       -5.6642458754  MEOH      2050            0.0000000000
     36320      2742  MEOH      LP1B          -24.8910819242      -26.0822851346       -5.9042214283  MEOH      2050            0.0000000000
     36321      2743  MEOH      C1            -34.4547464660        9.2760924580      -27.3772590043  MEOH      2051            0.0000000000
     36322      2743  MEOH      DC1           -34.4609771943        9.2749332053      -27.3696873987  MEOH      2051            0.0000000000
     36323      2743  MEOH      O1            -35.6522874361        9.8214303967      -26.8304486979  MEOH      2051            0.0000000000
     36324      2743  MEOH      DO1           -35.6544635255        9.8102478643      -26.8173889920  MEOH      2051            0.0000000000
     36325      2743  MEOH      HO1           -35.7399900019       10.7236672313      -27.1756688522  MEOH      2051            0.0000000000
     36326      2743  MEOH      HO2           -36.3477391339        9.1632670814      -26.9855873020  MEOH      2051            0.0000000000
     36327      2743  MEOH      H1A           -34.2716789599        8.2640085001      -26.9571478855  MEOH      2051            0.0000000000
     36328      2743  MEOH      H1B           -33.5872852900        9.9275615574      -27.1376340448  MEOH      2051            0.0000000000
     36329      2743  MEOH      H1C           -34.5513434036        9.1932068857      -28.4809437480  MEOH      2051            0.0000000000
     36330      2743  MEOH      LP1A          -35.9235755382        9.7474416422      -27.0388435872  MEOH      2051            0.0000000000
     36331      2743  MEOH      LP1B          -35.5841007579        9.9772258440      -26.5245429028  MEOH      2051            0.0000000000
     36332      2744  MEOH      C1            -35.8327318549      -18.0903024041       32.9359056496  MEOH      2052            0.0000000000
     36333      2744  MEOH      DC1           -35.8406274455      -18.0898017035       32.9362950044  MEOH      2052            0.0000000000
     36334      2744  MEOH      O1            -35.0131429896      -16.9192740714       32.9118443971  MEOH      2052            0.0000000000
     36335      2744  MEOH      DO1           -35.0197760358      -16.9147761900       32.9164469077  MEOH      2052            0.0000000000
     36336      2744  MEOH      HO1           -34.2097961912      -17.1331773896       33.4116236418  MEOH      2052            0.0000000000
     36337      2744  MEOH      HO2           -34.9300502617      -16.6802078479       31.9754454760  MEOH      2052            0.0000000000
     36338      2744  MEOH      H1A           -36.7641130779      -17.8994475821       32.3610800637  MEOH      2052            0.0000000000
     36339      2744  MEOH      H1B           -36.0980820714      -18.3539679967       33.9820369605  MEOH      2052            0.0000000000
     36340      2744  MEOH      H1C           -35.2874562164      -18.9381890745       32.4689113533  MEOH      2052            0.0000000000
     36341      2744  MEOH      LP1A          -34.8049468413      -16.9246337454       32.6305515999  MEOH      2052            0.0000000000
     36342      2744  MEOH      LP1B          -35.0920381293      -16.7123532344       33.1828782033  MEOH      2052            0.0000000000
     36343      2745  MEOH      C1            -14.0487093824        6.5708712348       -0.1377040926  MEOH      2053            0.0000000000
     36344      2745  MEOH      DC1           -14.0566118952        6.5756837167       -0.1285932938  MEOH      2053            0.0000000000
     36345      2745  MEOH      O1            -13.1337464391        7.2534753936        0.7203944347  MEOH      2053            0.0000000000
     36346      2745  MEOH      DO1           -13.1355781106        7.2577054312        0.7291994010  MEOH      2053            0.0000000000
     36347      2745  MEOH      HO1           -13.4759248677        8.1514433381        0.8525590844  MEOH      2053            0.0000000000
     36348      2745  MEOH      HO2           -12.9581379913        6.6589300772        1.4664356800  MEOH      2053            0.0000000000
     36349      2745  MEOH      H1A           -13.5931804688        5.6121645711       -0.4658746920  MEOH      2053            0.0000000000
     36350      2745  MEOH      H1B           -14.2524702984        7.1758592775       -1.0469851038  MEOH      2053            0.0000000000
     36351      2745  MEOH      H1C           -15.0036682884        6.3711424178        0.3937871012  MEOH      2053            0.0000000000
     36352      2745  MEOH      LP1A          -13.2229891785        7.2028788307        1.0550221701  MEOH      2053            0.0000000000
     36353      2745  MEOH      LP1B          -12.8845714045        7.4090888212        0.5301412790  MEOH      2053            0.0000000000
     36354      2746  MEOH      C1            -28.3670214968       28.2869821577      -26.0043565822  MEOH      2054            0.0000000000
     36355      2746  MEOH      DC1           -28.3691817076       28.2728201023      -26.0131882075  MEOH      2054            0.0000000000
     36356      2746  MEOH      O1            -28.1784336321       29.3041199893      -26.9848985009  MEOH      2054            0.0000000000
     36357      2746  MEOH      DO1           -28.1745605342       29.2928917817      -26.9886878347  MEOH      2054            0.0000000000
     36358      2746  MEOH      HO1           -28.9922344520       29.3703803853      -27.5085756791  MEOH      2054            0.0000000000
     36359      2746  MEOH      HO2           -27.8904021497       30.0855967916      -26.4876743335  MEOH      2054            0.0000000000
     36360      2746  MEOH      H1A           -27.4665692254       28.2311290838      -25.3559838944  MEOH      2054            0.0000000000
     36361      2746  MEOH      H1B           -28.5456295688       27.3028227721      -26.4879374554  MEOH      2054            0.0000000000
     36362      2746  MEOH      H1C           -29.2322953075       28.5544053962      -25.3608450875  MEOH      2054            0.0000000000
     36363      2746  MEOH      LP1A          -28.2742502519       29.6147318605      -26.8551316297  MEOH      2054            0.0000000000
     36364      2746  MEOH      LP1B          -28.0403188370       29.1661948357      -27.2754169261  MEOH      2054            0.0000000000
     36365      2747  MEOH      C1            -14.9039405896      -12.7247547786       24.9313602931  MEOH      2055            0.0000000000
     36366      2747  MEOH      DC1           -14.8941930965      -12.7331841391       24.9218118569  MEOH      2055            0.0000000000
     36367      2747  MEOH      O1            -15.6487150494      -13.3140088937       25.9980994952  MEOH      2055            0.0000000000
     36368      2747  MEOH      DO1           -15.6338099563      -13.3268949215       25.9902676271  MEOH      2055            0.0000000000
     36369      2747  MEOH      HO1           -15.1338130058      -13.2146800288       26.8141323758  MEOH      2055            0.0000000000
     36370      2747  MEOH      HO2           -16.5228481940      -12.8952360031       25.9604098111  MEOH      2055            0.0000000000
     36371      2747  MEOH      H1A           -15.5222367996      -12.7417855682       24.0084622756  MEOH      2055            0.0000000000
     36372      2747  MEOH      H1B           -13.9598186732      -13.2828559403       24.7539401712  MEOH      2055            0.0000000000
     36373      2747  MEOH      H1C           -14.6492408806      -11.6718366552       25.1779621658  MEOH      2055            0.0000000000
     36374      2747  MEOH      LP1A          -15.8617854730      -13.0759872372       26.1410914026  MEOH      2055            0.0000000000
     36375      2747  MEOH      LP1B          -15.5688460981      -13.6535837280       26.0265579307  MEOH      2055            0.0000000000
     36376      2748  MEOH      C1              4.6044691004       -5.2979690033        0.4677305647  MEOH      2056            0.0000000000
     36377      2748  MEOH      DC1             4.6143610594       -5.2948696930        0.4792388044  MEOH      2056            0.0000000000
     36378      2748  MEOH      O1              4.0725807975       -6.4478456192        1.1302174467  MEOH      2056            0.0000000000
     36379      2748  MEOH      DO1             4.0777773401       -6.4461188530        1.1330471351  MEOH      2056            0.0000000000
     36380      2748  MEOH      HO1             4.3581410437       -6.4294541510        2.0570492004  MEOH      2056            0.0000000000
     36381      2748  MEOH      HO2             3.1278774039       -6.4609238078        0.9105257087  MEOH      2056            0.0000000000
     36382      2748  MEOH      H1A             4.3618641510       -5.3433280853       -0.6155082793  MEOH      2056            0.0000000000
     36383      2748  MEOH      H1B             5.7070409423       -5.2557136346        0.5976182751  MEOH      2056            0.0000000000
     36384      2748  MEOH      H1C             4.1445828005       -4.3735274485        0.8778932206  MEOH      2056            0.0000000000
     36385      2748  MEOH      LP1A            3.7559529840       -6.3751780526        1.2604720146  MEOH      2056            0.0000000000
     36386      2748  MEOH      LP1B            4.2951421509       -6.7163965376        1.1011167900  MEOH      2056            0.0000000000
     36387      2749  MEOH      C1            -28.9610825353      -24.6444614371      -11.8625527219  MEOH      2057            0.0000000000
     36388      2749  MEOH      DC1           -28.9692607680      -24.6421245136      -11.8539259223  MEOH      2057            0.0000000000
     36389      2749  MEOH      O1            -29.7160539409      -25.6950972185      -11.2578716925  MEOH      2057            0.0000000000
     36390      2749  MEOH      DO1           -29.7208560416      -25.6922970381      -11.2513139299  MEOH      2057            0.0000000000
     36391      2749  MEOH      HO1           -30.0185193900      -26.2704951769      -11.9778243587  MEOH      2057            0.0000000000
     36392      2749  MEOH      HO2           -29.1514164198      -26.0619518509      -10.5596581508  MEOH      2057            0.0000000000
     36393      2749  MEOH      H1A           -28.6099248900      -23.9380897162      -11.0802175627  MEOH      2057            0.0000000000
     36394      2749  MEOH      H1B           -29.5923486045      -24.0903346759      -12.5897168596  MEOH      2057            0.0000000000
     36395      2749  MEOH      H1C           -28.0832305187      -25.0691412924      -12.3948532549  MEOH      2057            0.0000000000
     36396      2749  MEOH      LP1A          -29.5047095965      -25.9608955072      -11.1731082699  MEOH      2057            0.0000000000
     36397      2749  MEOH      LP1B          -30.0520473225      -25.6008548818      -11.2309119167  MEOH      2057            0.0000000000
     36398      2750  MEOH      C1             -3.7552803156      -33.5495213365      -29.6473213247  MEOH      2058            0.0000000000
     36399      2750  MEOH      DC1            -3.7488663240      -33.5474258463      -29.6592425262  MEOH      2058            0.0000000000
     36400      2750  MEOH      O1             -4.3782770197      -33.5779069953      -28.3659227318  MEOH      2058            0.0000000000
     36401      2750  MEOH      DO1            -4.3687112094      -33.5648384278      -28.3762740166  MEOH      2058            0.0000000000
     36402      2750  MEOH      HO1            -5.2376802868      -33.1329811041      -28.4320058432  MEOH      2058            0.0000000000
     36403      2750  MEOH      HO2            -4.3602482412      -34.5099231654      -28.0977421551  MEOH      2058            0.0000000000
     36404      2750  MEOH      H1A            -2.7433149746      -34.0016365861      -29.5709083016  MEOH      2058            0.0000000000
     36405      2750  MEOH      H1B            -3.6564247236      -32.4973172656      -29.9899802880  MEOH      2058            0.0000000000
     36406      2750  MEOH      H1C            -4.3622907007      -34.1228483797      -30.3802302519  MEOH      2058            0.0000000000
     36407      2750  MEOH      LP1A           -4.5686112584      -33.8696396132      -28.3317912627  MEOH      2058            0.0000000000
     36408      2750  MEOH      LP1B           -4.2835580933      -33.2965713964      -28.1805080458  MEOH      2058            0.0000000000
     36409      2751  MEOH      C1            -30.4523010354      -28.8083287231       -3.1963346165  MEOH      2059            0.0000000000
     36410      2751  MEOH      DC1           -30.4526102565      -28.8088061888       -3.1979170611  MEOH      2059            0.0000000000
     36411      2751  MEOH      O1            -31.1340318820      -30.0155081223       -2.8533836261  MEOH      2059            0.0000000000
     36412      2751  MEOH      DO1           -31.1234075616      -30.0260290825       -2.8634807617  MEOH      2059            0.0000000000
     36413      2751  MEOH      HO1           -31.8752867770      -30.1343422873       -3.4676471053  MEOH      2059            0.0000000000
     36414      2751  MEOH      HO2           -30.4528651006      -30.6929173160       -2.7191129972  MEOH      2059            0.0000000000
     36415      2751  MEOH      H1A           -29.7798376996      -28.5151742280       -2.3619638931  MEOH      2059            0.0000000000
     36416      2751  MEOH      H1B           -31.1918754508      -27.9970500522       -3.3671491482  MEOH      2059            0.0000000000
     36417      2751  MEOH      H1C           -29.8410903535      -28.9566288271       -4.1121673425  MEOH      2059            0.0000000000
     36418      2751  MEOH      LP1A          -30.9917212114      -30.2859608865       -3.0239795679  MEOH      2059            0.0000000000
     36419      2751  MEOH      LP1B          -31.3832057556      -29.9491764730       -2.6167140400  MEOH      2059            0.0000000000
     36420      2752  MEOH      C1            -31.3351400558       -9.3423673617        4.5771828661  MEOH      2060            0.0000000000
     36421      2752  MEOH      DC1           -31.3367791563       -9.3366998786        4.5771179913  MEOH      2060            0.0000000000
     36422      2752  MEOH      O1            -32.3721873750       -9.9908418350        3.8447839330  MEOH      2060            0.0000000000
     36423      2752  MEOH      DO1           -32.3747711166       -9.9847672257        3.8380066577  MEOH      2060            0.0000000000
     36424      2752  MEOH      HO1           -32.0103592521      -10.1801071531        2.9649208468  MEOH      2060            0.0000000000
     36425      2752  MEOH      HO2           -32.6447667744      -10.7354959439        4.4034347445  MEOH      2060            0.0000000000
     36426      2752  MEOH      H1A           -31.6688041397       -9.1382599469        5.6170527825  MEOH      2060            0.0000000000
     36427      2752  MEOH      H1B           -31.0648120614       -8.3810141410        4.0903114657  MEOH      2060            0.0000000000
     36428      2752  MEOH      H1C           -30.4422853548      -10.0027167632        4.6098960507  MEOH      2060            0.0000000000
     36429      2752  MEOH      LP1A          -32.3556236098      -10.3368685277        3.8946955514  MEOH      2060            0.0000000000
     36430      2752  MEOH      LP1B          -32.5698426970       -9.7529253151        3.6809910660  MEOH      2060            0.0000000000
     36431      2753  MEOH      C1            -30.6560066985      -26.9799395492       15.8378765561  MEOH      2061            0.0000000000
     36432      2753  MEOH      DC1           -30.6603637425      -26.9809416692       15.8298754964  MEOH      2061            0.0000000000
     36433      2753  MEOH      O1            -31.7639740660      -27.7837748442       15.4316720331  MEOH      2061            0.0000000000
     36434      2753  MEOH      DO1           -31.7666410086      -27.7843828043       15.4302361806  MEOH      2061            0.0000000000
     36435      2753  MEOH      HO1           -32.5643840688      -27.2506157583       15.5581046888  MEOH      2061            0.0000000000
     36436      2753  MEOH      HO2           -31.5359132025      -28.1241573992       14.5524519473  MEOH      2061            0.0000000000
     36437      2753  MEOH      H1A           -29.7282526568      -27.5910092014       15.8241900800  MEOH      2061            0.0000000000
     36438      2753  MEOH      H1B           -30.8111147596      -26.5933558181       16.8678355397  MEOH      2061            0.0000000000
     36439      2753  MEOH      H1C           -30.5367557237      -26.1275173670       15.1353976395  MEOH      2061            0.0000000000
     36440      2753  MEOH      LP1A          -31.8247269676      -27.7399054942       15.0897881858  MEOH      2061            0.0000000000
     36441      2753  MEOH      LP1B          -31.8818273181      -27.9710148595       15.7028763614  MEOH      2061            0.0000000000
     36442      2754  MEOH      C1            -23.7542202832       27.8842073350        3.0406750455  MEOH      2062            0.0000000000
     36443      2754  MEOH      DC1           -23.7616764662       27.8960864758        3.0575708146  MEOH      2062            0.0000000000
     36444      2754  MEOH      O1            -24.8264908782       28.8062374059        3.2806980250  MEOH      2062            0.0000000000
     36445      2754  MEOH      DO1           -24.8343428859       28.8169395975        3.2929076898  MEOH      2062            0.0000000000
     36446      2754  MEOH      HO1           -24.8548750502       29.3904429623        2.5068774980  MEOH      2062            0.0000000000
     36447      2754  MEOH      HO2           -25.5964060761       28.2725527232        3.5323152890  MEOH      2062            0.0000000000
     36448      2754  MEOH      H1A           -23.6312919069       27.2124699237        3.9170188505  MEOH      2062            0.0000000000
     36449      2754  MEOH      H1B           -22.8033504754       28.4359243751        2.8801262419  MEOH      2062            0.0000000000
     36450      2754  MEOH      H1C           -23.9610159843       27.2729504504        2.1362848866  MEOH      2062            0.0000000000
     36451      2754  MEOH      LP1A          -25.1269243902       28.6749697473        3.1581888144  MEOH      2062            0.0000000000
     36452      2754  MEOH      LP1B          -24.7071385646       29.0863222240        3.4533465694  MEOH      2062            0.0000000000
     36453      2755  MEOH      C1            -26.3352559150       33.4512431324       16.6503073871  MEOH      2063            0.0000000000
     36454      2755  MEOH      DC1           -26.3344243449       33.4493099395       16.6504618815  MEOH      2063            0.0000000000
     36455      2755  MEOH      O1            -25.5539209504       34.5098937015       17.2005697134  MEOH      2063            0.0000000000
     36456      2755  MEOH      DO1           -25.5469734496       34.5061445813       17.2061597672  MEOH      2063            0.0000000000
     36457      2755  MEOH      HO1           -24.8322601039       34.6887351183       16.5775758369  MEOH      2063            0.0000000000
     36458      2755  MEOH      HO2           -26.1894268279       35.2031337377       17.4381629235  MEOH      2063            0.0000000000
     36459      2755  MEOH      H1A           -27.1555437459       33.1819322380       17.3495359028  MEOH      2063            0.0000000000
     36460      2755  MEOH      H1B           -25.6871228490       32.5625231400       16.4940342164  MEOH      2063            0.0000000000
     36461      2755  MEOH      H1C           -26.8016435120       33.7632739038       15.6914328340  MEOH      2063            0.0000000000
     36462      2755  MEOH      LP1A          -25.6804934990       34.8189701923       17.0959221488  MEOH      2063            0.0000000000
     36463      2755  MEOH      LP1B          -25.3031755909       34.3789633981       17.4066862346  MEOH      2063            0.0000000000
     36464      2756  MEOH      C1              4.8778325032       18.5670622644        6.7748004174  MEOH      2064            0.0000000000
     36465      2756  MEOH      DC1             4.8747778759       18.5583324070        6.7670085562  MEOH      2064            0.0000000000
     36466      2756  MEOH      O1              3.9646619333       18.7069221859        7.8559195548  MEOH      2064            0.0000000000
     36467      2756  MEOH      DO1             3.9693567039       18.6903716014        7.8438322990  MEOH      2064            0.0000000000
     36468      2756  MEOH      HO1             4.4450072962       18.5719248368        8.6877512984  MEOH      2064            0.0000000000
     36469      2756  MEOH      HO2             3.5178719820       19.5551052769        7.7080541307  MEOH      2064            0.0000000000
     36470      2756  MEOH      H1A             4.3495213460       18.7314245316        5.8113724917  MEOH      2064            0.0000000000
     36471      2756  MEOH      H1B             5.2936698137       17.5368639414        6.7843789340  MEOH      2064            0.0000000000
     36472      2756  MEOH      H1C             5.6901549036       19.3198234630        6.8631400783  MEOH      2064            0.0000000000
     36473      2756  MEOH      LP1A            3.9495510890       19.0415700415        7.9573220951  MEOH      2064            0.0000000000
     36474      2756  MEOH      LP1B            3.8175408063       18.3978889794        7.9290895708  MEOH      2064            0.0000000000
     36475      2757  MEOH      C1             15.0326888903      -24.7831206153        3.3324602324  MEOH      2065            0.0000000000
     36476      2757  MEOH      DC1            15.0419182226      -24.7859189706        3.3228522416  MEOH      2065            0.0000000000
     36477      2757  MEOH      O1             13.9641383229      -24.0008874195        2.8084963764  MEOH      2065            0.0000000000
     36478      2757  MEOH      DO1            13.9679669042      -23.9896450036        2.8004740445  MEOH      2065            0.0000000000
     36479      2757  MEOH      HO1            13.2260639861      -24.1372978397        3.4229379702  MEOH      2065            0.0000000000
     36480      2757  MEOH      HO2            14.3279728180      -23.1162618619        2.6473688403  MEOH      2065            0.0000000000
     36481      2757  MEOH      H1A            15.9034281937      -24.7867859429        2.6424452827  MEOH      2065            0.0000000000
     36482      2757  MEOH      H1B            14.6552363915      -25.8169882934        3.4840129847  MEOH      2065            0.0000000000
     36483      2757  MEOH      H1C            15.3456976010      -24.3906299878        4.3235695375  MEOH      2065            0.0000000000
     36484      2757  MEOH      LP1A           13.9785680852      -23.6762124318        2.9384114806  MEOH      2065            0.0000000000
     36485      2757  MEOH      LP1B           13.7767980369      -24.1906875221        2.5818258263  MEOH      2065            0.0000000000
     36486      2758  MEOH      C1            -36.2712643857      -30.9990545208      -28.7961019253  MEOH      2066            0.0000000000
     36487      2758  MEOH      DC1           -36.2766173105      -30.9938562367      -28.8011751176  MEOH      2066            0.0000000000
     36488      2758  MEOH      O1            -36.4893344407      -32.2941187386      -28.2314260553  MEOH      2066            0.0000000000
     36489      2758  MEOH      DO1           -36.4977700874      -32.2902686081      -28.2437007288  MEOH      2066            0.0000000000
     36490      2758  MEOH      HO1           -36.5394873089      -32.2103309711      -27.2663538820  MEOH      2066            0.0000000000
     36491      2758  MEOH      HO2           -37.2039573467      -32.7036326390      -28.7437857618  MEOH      2066            0.0000000000
     36492      2758  MEOH      H1A           -35.9810856295      -31.1088033666      -29.8629067252  MEOH      2066            0.0000000000
     36493      2758  MEOH      H1B           -35.4484814853      -30.4808979815      -28.2586420667  MEOH      2066            0.0000000000
     36494      2758  MEOH      H1C           -37.1994787442      -30.3920087649      -28.7310284530  MEOH      2066            0.0000000000
     36495      2758  MEOH      LP1A          -36.8325726312      -32.3592282409      -28.2102530230  MEOH      2066            0.0000000000
     36496      2758  MEOH      LP1B          -36.1825874614      -32.4504933235      -28.1685509419  MEOH      2066            0.0000000000
     36497      2759  MEOH      C1             -6.2269331544       18.3107559696      -34.7075436901  MEOH      2067            0.0000000000
     36498      2759  MEOH      DC1            -6.2399480495       18.3150993256      -34.7164512745  MEOH      2067            0.0000000000
     36499      2759  MEOH      O1             -7.5023880365       17.8089010786      -35.1192015343  MEOH      2067            0.0000000000
     36500      2759  MEOH      DO1            -7.5148722088       17.8200698605      -35.1225138002  MEOH      2067            0.0000000000
     36501      2759  MEOH      HO1            -7.3236609066       17.1353636785      -35.7939637025  MEOH      2067            0.0000000000
     36502      2759  MEOH      HO2            -7.9417307599       17.5299119012      -34.3006399843  MEOH      2067            0.0000000000
     36503      2759  MEOH      H1A            -6.3497947223       19.0821769241      -33.9175210663  MEOH      2067            0.0000000000
     36504      2759  MEOH      H1B            -5.6869559360       18.7648594367      -35.5657602397  MEOH      2067            0.0000000000
     36505      2759  MEOH      H1C            -5.6150478254       17.4841763571      -34.2872063391  MEOH      2067            0.0000000000
     36506      2759  MEOH      LP1A           -7.5965247363       17.5400110807      -34.9158878585  MEOH      2067            0.0000000000
     36507      2759  MEOH      LP1B           -7.6268038219       18.0009656182      -35.3840258628  MEOH      2067            0.0000000000
     36508      2760  MEOH      C1             33.0867619348        1.2931015511        9.7841391778  MEOH      2068            0.0000000000
     36509      2760  MEOH      DC1            33.0865656094        1.2956165330        9.7842027731  MEOH      2068            0.0000000000
     36510      2760  MEOH      O1             33.2132090312        2.6252096143        9.2797571160  MEOH      2068            0.0000000000
     36511      2760  MEOH      DO1            33.2228363503        2.6231895785        9.2751562989  MEOH      2068            0.0000000000
     36512      2760  MEOH      HO1            33.0535222792        3.2391965124       10.0135283549  MEOH      2068            0.0000000000
     36513      2760  MEOH      HO2            34.0473058611        2.6477118110        8.7851096361  MEOH      2068            0.0000000000
     36514      2760  MEOH      H1A            33.1316561108        0.5688753405        8.9428295387  MEOH      2068            0.0000000000
     36515      2760  MEOH      H1B            32.1142159301        1.1700632261       10.3069554373  MEOH      2068            0.0000000000
     36516      2760  MEOH      H1C            33.9171903760        1.0714860577       10.4881250991  MEOH      2068            0.0000000000
     36517      2760  MEOH      LP1A           33.5457198230        2.7315850739        9.3046736744  MEOH      2068            0.0000000000
     36518      2760  MEOH      LP1B           32.9041839022        2.7376857543        9.1599548306  MEOH      2068            0.0000000000
     36519      2761  MEOH      C1             11.1812778422       27.2185777351      -36.5148196443  MEOH      2069            0.0000000000
     36520      2761  MEOH      DC1            11.1849507325       27.2269462791      -36.5127597081  MEOH      2069            0.0000000000
     36521      2761  MEOH      O1             10.6986860667       28.3602384477      -35.8022537676  MEOH      2069            0.0000000000
     36522      2761  MEOH      DO1            10.7061011713       28.3692698950      -35.7984075673  MEOH      2069            0.0000000000
     36523      2761  MEOH      HO1            10.0684538403       28.8019323637      -36.3926890528  MEOH      2069            0.0000000000
     36524      2761  MEOH      HO2            10.3866348357       28.0161883053      -34.9506942989  MEOH      2069            0.0000000000
     36525      2761  MEOH      H1A            11.9401147345       26.6792514488      -35.9085072419  MEOH      2069            0.0000000000
     36526      2761  MEOH      H1B            11.6542371881       27.5465230369      -37.4651260878  MEOH      2069            0.0000000000
     36527      2761  MEOH      H1C            10.3500000534       26.5244374482      -36.7627460445  MEOH      2069            0.0000000000
     36528      2761  MEOH      LP1A           10.4173936006       28.2731606294      -35.6130660246  MEOH      2069            0.0000000000
     36529      2761  MEOH      LP1B           10.9058049792       28.6357209735      -35.8631728459  MEOH      2069            0.0000000000
     36530      2762  MEOH      C1             36.2112478587       -9.9224580547      -14.8460320647  MEOH      2070            0.0000000000
     36531      2762  MEOH      DC1            36.2017226537       -9.9357455147      -14.8293465067  MEOH      2070            0.0000000000
     36532      2762  MEOH      O1             35.0509230304      -10.6922200743      -14.5370592596  MEOH      2070            0.0000000000
     36533      2762  MEOH      DO1            35.0468976047      -10.7034246264      -14.5142658081  MEOH      2070            0.0000000000
     36534      2762  MEOH      HO1            35.0161126995      -10.7924175326      -13.5728763353  MEOH      2070            0.0000000000
     36535      2762  MEOH      HO2            34.3180498418      -10.2623562193      -15.0050485283  MEOH      2070            0.0000000000
     36536      2762  MEOH      H1A            36.2987998900       -9.8051607905      -15.9473480936  MEOH      2070            0.0000000000
     36537      2762  MEOH      H1B            37.1210455372      -10.4350544146      -14.4667773263  MEOH      2070            0.0000000000
     36538      2762  MEOH      H1C            36.1304990548       -8.9138415077      -14.3872365854  MEOH      2070            0.0000000000
     36539      2762  MEOH      LP1A           34.7750572145      -10.4810795442      -14.4944244365  MEOH      2070            0.0000000000
     36540      2762  MEOH      LP1B           35.1295134368      -11.0332768687      -14.5390114427  MEOH      2070            0.0000000000
     36541      2763  MEOH      C1              4.2730347303       20.8587282295      -27.9851575297  MEOH      2071            0.0000000000
     36542      2763  MEOH      DC1             4.3140085713       20.8634209797      -27.9638349969  MEOH      2071            0.0000000000
     36543      2763  MEOH      O1              5.4634985630       20.8673921860      -27.2025576396  MEOH      2071            0.0000000000
     36544      2763  MEOH      DO1             5.4932137396       20.8805219985      -27.1882087559  MEOH      2071            0.0000000000
     36545      2763  MEOH      HO1             5.5763207273       19.9456268352      -26.9223437976  MEOH      2071            0.0000000000
     36546      2763  MEOH      HO2             6.1391208446       21.3065723843      -27.7425162379  MEOH      2071            0.0000000000
     36547      2763  MEOH      H1A             3.9768060131       21.8943544394      -28.2572749686  MEOH      2071            0.0000000000
     36548      2763  MEOH      H1B             3.4402424677       20.3979218813      -27.4120645545  MEOH      2071            0.0000000000
     36549      2763  MEOH      H1C             4.4303015141       20.2772253335      -28.9186683980  MEOH      2071            0.0000000000
     36550      2763  MEOH      LP1A            5.7419599604       20.8134789443      -27.4076249761  MEOH      2071            0.0000000000
     36551      2763  MEOH      LP1B            5.3861891112       20.9340465375      -26.8677734612  MEOH      2071            0.0000000000
     36552      2764  MEOH      C1             20.7938473226       32.9275951446      -16.0272878027  MEOH      2072            0.0000000000
     36553      2764  MEOH      DC1            20.7946738915       32.9394239615      -16.0240297906  MEOH      2072            0.0000000000
     36554      2764  MEOH      O1             20.4408891532       31.7209150760      -15.3587007617  MEOH      2072            0.0000000000
     36555      2764  MEOH      DO1            20.4326011496       31.7362032049      -15.3527677735  MEOH      2072            0.0000000000
     36556      2764  MEOH      HO1            20.0544406730       31.1215039546      -16.0161685409  MEOH      2072            0.0000000000
     36557      2764  MEOH      HO2            21.2408176310       31.4454602690      -14.8842125325  MEOH      2072            0.0000000000
     36558      2764  MEOH      H1A            21.2836737504       33.6234004893      -15.3129727505  MEOH      2072            0.0000000000
     36559      2764  MEOH      H1B            19.8957664007       33.4174125857      -16.4607050752  MEOH      2072            0.0000000000
     36560      2764  MEOH      H1C            21.4970217458       32.6701998446      -16.8480279515  MEOH      2072            0.0000000000
     36561      2764  MEOH      LP1A           20.7115940545       31.4990761252      -15.3612179580  MEOH      2072            0.0000000000
     36562      2764  MEOH      LP1B           20.1147330468       31.7442126215      -15.2338832203  MEOH      2072            0.0000000000
     36563      2765  MEOH      C1             19.5449587313       18.1327894739      -36.6668364931  MEOH      2073            0.0000000000
     36564      2765  MEOH      DC1            19.5475981597       18.1395004395      -36.6644959330  MEOH      2073            0.0000000000
     36565      2765  MEOH      O1             20.2490738931       19.3762136128      -36.6067654450  MEOH      2073            0.0000000000
     36566      2765  MEOH      DO1            20.2437910295       19.3772583492      -36.6110090598  MEOH      2073            0.0000000000
     36567      2765  MEOH      HO1            20.7732883228       19.3897290745      -35.7907283349  MEOH      2073            0.0000000000
     36568      2765  MEOH      HO2            20.6823909474       19.4780160933      -37.4686079975  MEOH      2073            0.0000000000
     36569      2765  MEOH      H1A            18.8379876078       18.1520185347      -37.5236579890  MEOH      2073            0.0000000000
     36570      2765  MEOH      H1B            18.9644629231       17.9722513687      -35.7332556803  MEOH      2073            0.0000000000
     36571      2765  MEOH      H1C            20.2545897222       17.2897071468      -36.8081059040  MEOH      2073            0.0000000000
     36572      2765  MEOH      LP1A           20.5587582161       19.3462820958      -36.7670767806  MEOH      2073            0.0000000000
     36573      2765  MEOH      LP1B           20.0525897518       19.6174189263      -36.4464096562  MEOH      2073            0.0000000000
     36574      2766  MEOH      C1            -19.1501664635       11.5520085771       26.8360910240  MEOH      2074            0.0000000000
     36575      2766  MEOH      DC1           -19.1456618587       11.5670608930       26.8373330772  MEOH      2074            0.0000000000
     36576      2766  MEOH      O1            -18.4430929418       10.5509453850       27.5730500158  MEOH      2074            0.0000000000
     36577      2766  MEOH      DO1           -18.4378538450       10.5672254283       27.5751354587  MEOH      2074            0.0000000000
     36578      2766  MEOH      HO1           -18.9544418200       10.3545830622       28.3735899355  MEOH      2074            0.0000000000
     36579      2766  MEOH      HO2           -18.2636589053        9.8357812860       26.9427772665  MEOH      2074            0.0000000000
     36580      2766  MEOH      H1A           -18.6326058719       11.7252241534       25.8683883843  MEOH      2074            0.0000000000
     36581      2766  MEOH      H1B           -19.1999297300       12.4994100398       27.4142562996  MEOH      2074            0.0000000000
     36582      2766  MEOH      H1C           -20.1807673588       11.2029755316       26.6116835167  MEOH      2074            0.0000000000
     36583      2766  MEOH      LP1A          -18.5433474597       10.2322732198       27.4686609226  MEOH      2074            0.0000000000
     36584      2766  MEOH      LP1B          -18.2162826415       10.7018840881       27.7927648210  MEOH      2074            0.0000000000
     36585      2767  MEOH      C1             25.6221540238       26.1020181055       -0.3331667190  MEOH      2075            0.0000000000
     36586      2767  MEOH      DC1            25.6277740926       26.1045550445       -0.3254226717  MEOH      2075            0.0000000000
     36587      2767  MEOH      O1             24.7058351378       25.6686536647       -1.3419148597  MEOH      2075            0.0000000000
     36588      2767  MEOH      DO1            24.7073563976       25.6782132328       -1.3456299996  MEOH      2075            0.0000000000
     36589      2767  MEOH      HO1            25.1822552616       25.0554510068       -1.9232120016  MEOH      2075            0.0000000000
     36590      2767  MEOH      HO2            23.9321101419       25.3400156535       -0.8579244791  MEOH      2075            0.0000000000
     36591      2767  MEOH      H1A            25.1028098486       26.7759082667        0.3813083883  MEOH      2075            0.0000000000
     36592      2767  MEOH      H1B            26.4684034325       26.6510876201       -0.7986832130  MEOH      2075            0.0000000000
     36593      2767  MEOH      H1C            26.0142851549       25.2197391281        0.2165040768  MEOH      2075            0.0000000000
     36594      2767  MEOH      LP1A           24.5339160292       25.3838662579       -1.2331033114  MEOH      2075            0.0000000000
     36595      2767  MEOH      LP1B           24.7161266101       25.8874024318       -1.6149406139  MEOH      2075            0.0000000000
     36596      2768  MEOH      C1            -28.3327556624       13.4721194222       17.8229811880  MEOH      2076            0.0000000000
     36597      2768  MEOH      DC1           -28.3373867039       13.4891578964       17.8273525676  MEOH      2076            0.0000000000
     36598      2768  MEOH      O1            -28.5402409130       12.3715702730       16.9377885083  MEOH      2076            0.0000000000
     36599      2768  MEOH      DO1           -28.5409857200       12.3845394289       16.9339136361  MEOH      2076            0.0000000000
     36600      2768  MEOH      HO1           -28.3830386442       11.5596784278       17.4447589989  MEOH      2076            0.0000000000
     36601      2768  MEOH      HO2           -29.3942399614       12.5319997925       16.5066875971  MEOH      2076            0.0000000000
     36602      2768  MEOH      H1A           -28.4187439484       14.4223542310       17.2537880528  MEOH      2076            0.0000000000
     36603      2768  MEOH      H1B           -27.3199663145       13.3981920800       18.2736623234  MEOH      2076            0.0000000000
     36604      2768  MEOH      H1C           -29.1013186099       13.4707641529       18.6252468291  MEOH      2076            0.0000000000
     36605      2768  MEOH      LP1A          -28.8764445230       12.2744858055       16.9442490643  MEOH      2076            0.0000000000
     36606      2768  MEOH      LP1B          -28.2413042643       12.2913840832       16.7743655753  MEOH      2076            0.0000000000
     36607      2769  MEOH      C1            -30.6841971260       31.2901130303      -16.3802830800  MEOH      2077            0.0000000000
     36608      2769  MEOH      DC1           -30.6740908207       31.2861285448      -16.3753490149  MEOH      2077            0.0000000000
     36609      2769  MEOH      O1            -31.1653673543       31.5004907627      -17.7042577722  MEOH      2077            0.0000000000
     36610      2769  MEOH      DO1           -31.1577469770       31.4913516963      -17.7026555108  MEOH      2077            0.0000000000
     36611      2769  MEOH      HO1           -32.1293161253       31.5864607163      -17.6385924466  MEOH      2077            0.0000000000
     36612      2769  MEOH      HO2           -30.6373973811       32.2277084424      -18.0693634469  MEOH      2077            0.0000000000
     36613      2769  MEOH      H1A           -29.5848835103       31.1313630614      -16.4053633930  MEOH      2077            0.0000000000
     36614      2769  MEOH      H1B           -31.1866806043       30.3992541003      -15.9464608591  MEOH      2077            0.0000000000
     36615      2769  MEOH      H1C           -30.9139308343       32.1732182839      -15.7465098285  MEOH      2077            0.0000000000
     36616      2769  MEOH      LP1A          -31.1687304177       31.8427394000      -17.7774326315  MEOH      2077            0.0000000000
     36617      2769  MEOH      LP1B          -31.2321359603       31.1930485907      -17.8576242096  MEOH      2077            0.0000000000
     36618      2770  MEOH      C1             12.9681411426      -22.7222807375       -0.7611699902  MEOH      2078            0.0000000000
     36619      2770  MEOH      DC1            12.9753913151      -22.7228799755       -0.7861590772  MEOH      2078            0.0000000000
     36620      2770  MEOH      O1             11.5546207654      -22.5173937558       -0.8808416818  MEOH      2078            0.0000000000
     36621      2770  MEOH      DO1            11.5568652285      -22.5169256466       -0.8963719458  MEOH      2078            0.0000000000
     36622      2770  MEOH      HO1            11.3576111682      -22.1243399639       -1.7454779851  MEOH      2078            0.0000000000
     36623      2770  MEOH      HO2            11.1325993842      -23.3414127126       -0.5913754272  MEOH      2078            0.0000000000
     36624      2770  MEOH      H1A            13.2145943659      -23.0263412812        0.2786035404  MEOH      2078            0.0000000000
     36625      2770  MEOH      H1B            13.5166393480      -21.7815264075       -0.9812881613  MEOH      2078            0.0000000000
     36626      2770  MEOH      H1C            13.3035944777      -23.5298257088       -1.4464897554  MEOH      2078            0.0000000000
     36627      2770  MEOH      LP1A           11.4031706451      -22.8030807508       -1.0148036238  MEOH      2078            0.0000000000
     36628      2770  MEOH      LP1B           11.4684390767      -22.2018368262       -0.7563565794  MEOH      2078            0.0000000000
     36629      2771  MEOH      C1            -15.1080211954       10.8025401161       10.6639343643  MEOH      2079            0.0000000000
     36630      2771  MEOH      DC1           -15.0878024481       10.8182770500       10.6400904092  MEOH      2079            0.0000000000
     36631      2771  MEOH      O1            -14.9138989638       11.8097753580        9.6686706571  MEOH      2079            0.0000000000
     36632      2771  MEOH      DO1           -14.9027913896       11.8228929652        9.6503851137  MEOH      2079            0.0000000000
     36633      2771  MEOH      HO1           -15.8115078483       12.1269980604        9.4827458114  MEOH      2079            0.0000000000
     36634      2771  MEOH      HO2           -14.2515392954       12.4162327533       10.0352618425  MEOH      2079            0.0000000000
     36635      2771  MEOH      H1A           -14.1430411472       10.3186808105       10.9266408176  MEOH      2079            0.0000000000
     36636      2771  MEOH      H1B           -15.8102234740       10.0274031459       10.2892403053  MEOH      2079            0.0000000000
     36637      2771  MEOH      H1C           -15.5463195882       11.2525105450       11.5803088140  MEOH      2079            0.0000000000
     36638      2771  MEOH      LP1A          -14.8606085396       12.1201951809        9.8213129324  MEOH      2079            0.0000000000
     36639      2771  MEOH      LP1B          -14.9233512214       11.6661968788        9.3496159986  MEOH      2079            0.0000000000
     36640      2772  MEOH      C1             -0.0419666946      -10.9866878159       -9.2203943857  MEOH      2080            0.0000000000
     36641      2772  MEOH      DC1            -0.0446270667      -10.9819794765       -9.2124505799  MEOH      2080            0.0000000000
     36642      2772  MEOH      O1             -1.2572388445      -11.1225882080       -8.4858237596  MEOH      2080            0.0000000000
     36643      2772  MEOH      DO1            -1.2606791209      -11.1215583692       -8.4836595611  MEOH      2080            0.0000000000
     36644      2772  MEOH      HO1            -1.3097856051      -12.0391597048       -8.1727175006  MEOH      2080            0.0000000000
     36645      2772  MEOH      HO2            -1.2712762297      -10.3886891771       -7.8517140168  MEOH      2080            0.0000000000
     36646      2772  MEOH      H1A             0.0280962365       -9.9605772905       -9.6405245761  MEOH      2080            0.0000000000
     36647      2772  MEOH      H1B            -0.0247073961      -11.7018167140      -10.0704613102  MEOH      2080            0.0000000000
     36648      2772  MEOH      H1C             0.8300997779      -11.1859292034       -8.5615135642  MEOH      2080            0.0000000000
     36649      2772  MEOH      LP1A           -1.2031876137      -11.0432297206       -8.1492517837  MEOH      2080            0.0000000000
     36650      2772  MEOH      LP1B           -1.5177009061      -11.2137216115       -8.7011240551  MEOH      2080            0.0000000000
     36651      2773  MEOH      C1            -16.0922385131       35.6523504290       32.4734274355  MEOH      2081            0.0000000000
     36652      2773  MEOH      DC1           -16.0949810814       35.6397261150       32.4607796710  MEOH      2081            0.0000000000
     36653      2773  MEOH      O1            -16.3902437945       34.7078788536       31.4479856709  MEOH      2081            0.0000000000
     36654      2773  MEOH      DO1           -16.3913832676       34.6914535375       31.4469261358  MEOH      2081            0.0000000000
     36655      2773  MEOH      HO1           -15.5439214666       34.4590062617       31.0446236110  MEOH      2081            0.0000000000
     36656      2773  MEOH      HO2           -16.9773375973       34.0521511453       31.8557135695  MEOH      2081            0.0000000000
     36657      2773  MEOH      H1A           -17.0467149394       36.0343022999       32.8946263433  MEOH      2081            0.0000000000
     36658      2773  MEOH      H1B           -15.5111894605       36.5057638906       32.0630758017  MEOH      2081            0.0000000000
     36659      2773  MEOH      H1C           -15.5095205270       35.1888295700       33.2979934804  MEOH      2081            0.0000000000
     36660      2773  MEOH      LP1A          -16.3896372638       34.3837133880       31.5799568158  MEOH      2081            0.0000000000
     36661      2773  MEOH      LP1B          -16.4520700221       34.8742300512       31.1463156581  MEOH      2081            0.0000000000
     36662      2774  MEOH      C1             35.1891815526       34.6793240970       11.9606693879  MEOH      2082            0.0000000000
     36663      2774  MEOH      DC1            35.1894374482       34.6622165431       11.9637430705  MEOH      2082            0.0000000000
     36664      2774  MEOH      O1             34.3524757067       33.6427502766       12.4810570040  MEOH      2082            0.0000000000
     36665      2774  MEOH      DO1            34.3556107392       33.6217594613       12.4852146035  MEOH      2082            0.0000000000
     36666      2774  MEOH      HO1            34.9004850594       33.1466842031       13.1091526974  MEOH      2082            0.0000000000
     36667      2774  MEOH      HO2            33.5569299303       34.0969076824       12.8000365787  MEOH      2082            0.0000000000
     36668      2774  MEOH      H1A            34.6183146320       35.2944513194       11.2326237443  MEOH      2082            0.0000000000
     36669      2774  MEOH      H1B            36.0737195370       34.2385309056       11.4531115904  MEOH      2082            0.0000000000
     36670      2774  MEOH      H1C            35.5358721986       35.3406961454       12.7832954329  MEOH      2082            0.0000000000
     36671      2774  MEOH      LP1A           34.1812083079       33.7577733576       12.7637886241  MEOH      2082            0.0000000000
     36672      2774  MEOH      LP1B           34.3750016952       33.3579219752       12.2789050351  MEOH      2082            0.0000000000
     36673      2775  MEOH      C1             33.7192878358      -16.7211189356      -29.0145765827  MEOH      2083            0.0000000000
     36674      2775  MEOH      DC1            33.7230090691      -16.7212588521      -29.0107997192  MEOH      2083            0.0000000000
     36675      2775  MEOH      O1             32.3804296114      -16.2230934500      -29.0158626579  MEOH      2083            0.0000000000
     36676      2775  MEOH      DO1            32.3862203307      -16.2239154218      -29.0110552231  MEOH      2083            0.0000000000
     36677      2775  MEOH      HO1            31.8298935799      -16.8252956820      -28.4913032707  MEOH      2083            0.0000000000
     36678      2775  MEOH      HO2            32.4411633936      -15.2822148739      -28.7879176805  MEOH      2083            0.0000000000
     36679      2775  MEOH      H1A            34.3401199842      -16.1189967506      -29.7119554743  MEOH      2083            0.0000000000
     36680      2775  MEOH      H1B            33.7350528343      -17.7840704708      -29.3373868962  MEOH      2083            0.0000000000
     36681      2775  MEOH      H1C            34.1493168107      -16.6405478027      -27.9933496861  MEOH      2083            0.0000000000
     36682      2775  MEOH      LP1A           32.3350118649      -16.0011468978      -28.7490725601  MEOH      2083            0.0000000000
     36683      2775  MEOH      LP1B           32.2047486426      -16.3527331316      -29.2894129278  MEOH      2083            0.0000000000
     36684      2776  MEOH      C1             27.3959158409        3.2428767809      -17.7753682099  MEOH      2084            0.0000000000
     36685      2776  MEOH      DC1            27.4005655434        3.2555856261      -17.7541857577  MEOH      2084            0.0000000000
     36686      2776  MEOH      O1             27.2394742578        4.4421592364      -17.0334513867  MEOH      2084            0.0000000000
     36687      2776  MEOH      DO1            27.2302866753        4.4541473204      -17.0328865059  MEOH      2084            0.0000000000
     36688      2776  MEOH      HO1            27.9852210582        5.0115619775      -17.2795046901  MEOH      2084            0.0000000000
     36689      2776  MEOH      HO2            26.3260833042        4.7257936600      -17.1952181339  MEOH      2084            0.0000000000
     36690      2776  MEOH      H1A            26.6434949218        2.4845248507      -17.4702680435  MEOH      2084            0.0000000000
     36691      2776  MEOH      H1B            28.4111280770        2.8230922645      -17.6096996388  MEOH      2084            0.0000000000
     36692      2776  MEOH      H1C            27.2613065296        3.4524252091      -18.8580919934  MEOH      2084            0.0000000000
     36693      2776  MEOH      LP1A           27.0429784104        4.6693159981      -17.2131433107  MEOH      2084            0.0000000000
     36694      2776  MEOH      LP1B           27.4000152314        4.4131637661      -16.7237969689  MEOH      2084            0.0000000000
     36695      2777  MEOH      C1            -13.4824381846       36.4321935567       24.2119495840  MEOH      2085            0.0000000000
     36696      2777  MEOH      DC1           -13.4769803339       36.4292370509       24.2126135430  MEOH      2085            0.0000000000
     36697      2777  MEOH      O1            -14.4019365120       35.4730582146       23.6839214806  MEOH      2085            0.0000000000
     36698      2777  MEOH      DO1           -14.4033057511       35.4711059412       23.6761286549  MEOH      2085            0.0000000000
     36699      2777  MEOH      HO1           -15.2371344747       35.5672411407       24.1681465735  MEOH      2085            0.0000000000
     36700      2777  MEOH      HO2           -14.3731092099       35.5763909534       22.7198720359  MEOH      2085            0.0000000000
     36701      2777  MEOH      H1A           -12.5733435085       36.4424465676       23.5733865522  MEOH      2085            0.0000000000
     36702      2777  MEOH      H1B           -13.2181042785       36.1863062702       25.2626579306  MEOH      2085            0.0000000000
     36703      2777  MEOH      H1C           -13.9261097616       37.4507309182       24.2195768625  MEOH      2085            0.0000000000
     36704      2777  MEOH      LP1A          -14.5781367756       35.6115370305       23.4150775023  MEOH      2085            0.0000000000
     36705      2777  MEOH      LP1B          -14.3716875889       35.1703426342       23.8569771943  MEOH      2085            0.0000000000
     36706      2778  MEOH      C1             30.0653167350       33.7773826355       26.6969636421  MEOH      2086            0.0000000000
     36707      2778  MEOH      DC1            30.0692003640       33.7739338101       26.6915132400  MEOH      2086            0.0000000000
     36708      2778  MEOH      O1             28.9190925189       33.8940588347       25.8591929068  MEOH      2086            0.0000000000
     36709      2778  MEOH      DO1            28.9207427543       33.8981351440       25.8638429603  MEOH      2086            0.0000000000
     36710      2778  MEOH      HO1            28.1800386008       33.4419763581       26.2954505605  MEOH      2086            0.0000000000
     36711      2778  MEOH      HO2            28.8515126034       34.8348015388       25.6326181481  MEOH      2086            0.0000000000
     36712      2778  MEOH      H1A            30.9490161149       34.1736188675       26.1525435331  MEOH      2086            0.0000000000
     36713      2778  MEOH      H1B            30.2277639243       32.7116237257       26.9654591854  MEOH      2086            0.0000000000
     36714      2778  MEOH      H1C            29.9416778026       34.3745612890       27.6256250827  MEOH      2086            0.0000000000
     36715      2778  MEOH      LP1A           28.7437918035       34.1870194577       25.9362885135  MEOH      2086            0.0000000000
     36716      2778  MEOH      LP1B           28.9079386177       33.6266427232       25.6336619471  MEOH      2086            0.0000000000
     36717      2779  MEOH      C1             11.6296092370       12.5345708068      -27.8638050554  MEOH      2087            0.0000000000
     36718      2779  MEOH      DC1            11.6178748108       12.5523775579      -27.8487975155  MEOH      2087            0.0000000000
     36719      2779  MEOH      O1             11.5081554546       11.2058486185      -28.3646685178  MEOH      2087            0.0000000000
     36720      2779  MEOH      DO1            11.4932656310       11.2154931678      -28.3474944534  MEOH      2087            0.0000000000
     36721      2779  MEOH      HO1            11.9215543897       10.5907587129      -27.7388364889  MEOH      2087            0.0000000000
     36722      2779  MEOH      HO2            10.5927177745       11.1035590475      -28.6686597981  MEOH      2087            0.0000000000
     36723      2779  MEOH      H1A            11.3693233302       13.2464877472      -28.6760528731  MEOH      2087            0.0000000000
     36724      2779  MEOH      H1B            12.6754009859       12.7163881455      -27.5358064681  MEOH      2087            0.0000000000
     36725      2779  MEOH      H1C            10.9326515715       12.6877723942      -27.0122768483  MEOH      2087            0.0000000000
     36726      2779  MEOH      LP1A           11.2082147067       11.0632372341      -28.2542260405  MEOH      2087            0.0000000000
     36727      2779  MEOH      LP1B           11.7821740622       11.1292370020      -28.5684931063  MEOH      2087            0.0000000000
     36728      2780  MEOH      C1            -27.0327528742      -33.3757974540      -31.5723624467  MEOH      2088            0.0000000000
     36729      2780  MEOH      DC1           -27.0324251423      -33.3545835365      -31.5624628484  MEOH      2088            0.0000000000
     36730      2780  MEOH      O1            -26.5300627469      -32.4068477291      -32.4958063322  MEOH      2088            0.0000000000
     36731      2780  MEOH      DO1           -26.5257004298      -32.3875522299      -32.4889183299  MEOH      2088            0.0000000000
     36732      2780  MEOH      HO1           -27.2500197352      -31.7891336551      -32.6982693114  MEOH      2088            0.0000000000
     36733      2780  MEOH      HO2           -25.6649519509      -32.1214734589      -32.1625724231  MEOH      2088            0.0000000000
     36734      2780  MEOH      H1A           -26.3320788753      -34.2367777069      -31.5266464421  MEOH      2088            0.0000000000
     36735      2780  MEOH      H1B           -28.0181297677      -33.7460643398      -31.9276873855  MEOH      2088            0.0000000000
     36736      2780  MEOH      H1C           -27.1420007123      -32.9444093584      -30.5543790378  MEOH      2088            0.0000000000
     36737      2780  MEOH      LP1A          -26.3896653648      -32.1374248909      -32.3220251211  MEOH      2088            0.0000000000
     36738      2780  MEOH      LP1B          -26.5760435748      -32.5192053782      -32.8240768337  MEOH      2088            0.0000000000
     36739      2781  MEOH      C1             20.4935353204       23.8764336216        9.6752002195  MEOH      2089            0.0000000000
     36740      2781  MEOH      DC1            20.4999115735       23.8804057903        9.6753377687  MEOH      2089            0.0000000000
     36741      2781  MEOH      O1             19.1325918861       23.7847628682        9.2477472567  MEOH      2089            0.0000000000
     36742      2781  MEOH      DO1            19.1393303598       23.7828557388        9.2537110248  MEOH      2089            0.0000000000
     36743      2781  MEOH      HO1            18.5620403184       23.6533824425       10.0211230337  MEOH      2089            0.0000000000
     36744      2781  MEOH      HO2            18.9872575796       24.5241810898        8.6369783691  MEOH      2089            0.0000000000
     36745      2781  MEOH      H1A            21.1556069546       23.9447920667        8.7856445578  MEOH      2089            0.0000000000
     36746      2781  MEOH      H1B            20.7696191088       22.9785818566       10.2684631879  MEOH      2089            0.0000000000
     36747      2781  MEOH      H1C            20.6378339499       24.7838482186       10.2997782026  MEOH      2089            0.0000000000
     36748      2781  MEOH      LP1A           18.9883608379       24.1035227953        9.2382860920  MEOH      2089            0.0000000000
     36749      2781  MEOH      LP1B           19.0522099010       23.4520388545        9.1747166658  MEOH      2089            0.0000000000
     36750      2782  MEOH      C1             34.5648278964      -21.1760638405       11.3709054995  MEOH      2090            0.0000000000
     36751      2782  MEOH      DC1            34.5694828507      -21.1713772168       11.3738456960  MEOH      2090            0.0000000000
     36752      2782  MEOH      O1             34.2907328837      -19.8819074233       11.8892627963  MEOH      2090            0.0000000000
     36753      2782  MEOH      DO1            34.2906565783      -19.8743423098       11.8955632460  MEOH      2090            0.0000000000
     36754      2782  MEOH      HO1            34.5172793017      -19.2479752640       11.1909027610  MEOH      2090            0.0000000000
     36755      2782  MEOH      HO2            33.3837167662      -19.9282802184       12.2299552184  MEOH      2090            0.0000000000
     36756      2782  MEOH      H1A            34.3361560357      -21.9423639256       12.1421475889  MEOH      2090            0.0000000000
     36757      2782  MEOH      H1B            35.6399727804      -21.2320418460       11.0965864492  MEOH      2090            0.0000000000
     36758      2782  MEOH      H1C            33.9395870660      -21.3720937239       10.4737058611  MEOH      2090            0.0000000000
     36759      2782  MEOH      LP1A           33.9588813848      -19.7936491036       11.8215497866  MEOH      2090            0.0000000000
     36760      2782  MEOH      LP1B           34.5729331128      -19.7567852797       12.0542096965  MEOH      2090            0.0000000000
     36761      2783  MEOH      C1             32.1335577954      -25.6481301066      -24.6755101842  MEOH      2091            0.0000000000
     36762      2783  MEOH      DC1            32.1350785592      -25.6589925245      -24.6774247873  MEOH      2091            0.0000000000
     36763      2783  MEOH      O1             32.4506684314      -24.2595994380      -24.6184114737  MEOH      2091            0.0000000000
     36764      2783  MEOH      DO1            32.4373480847      -24.2693172525      -24.6099721907  MEOH      2091            0.0000000000
     36765      2783  MEOH      HO1            32.5059356837      -23.9783832360      -23.6917168207  MEOH      2091            0.0000000000
     36766      2783  MEOH      HO2            33.2194725797      -24.1427370387      -25.1982246860  MEOH      2091            0.0000000000
     36767      2783  MEOH      H1A            32.0552858733      -25.9604448035      -25.7388323542  MEOH      2091            0.0000000000
     36768      2783  MEOH      H1B            31.1601868918      -25.8341216217      -24.1732381063  MEOH      2091            0.0000000000
     36769      2783  MEOH      H1C            32.9301387055      -26.2423914203      -24.1788882487  MEOH      2091            0.0000000000
     36770      2783  MEOH      LP1A           32.7979495162      -24.2161135766      -24.6162142058  MEOH      2091            0.0000000000
     36771      2783  MEOH      LP1B           32.1568584186      -24.0694440987      -24.6224886459  MEOH      2091            0.0000000000
     36772      2784  MEOH      C1            -20.1170209963       -8.3062466187      -30.5890909792  MEOH      2092            0.0000000000
     36773      2784  MEOH      DC1           -20.1112750496       -8.3158342210      -30.5939287028  MEOH      2092            0.0000000000
     36774      2784  MEOH      O1            -19.5334099453       -9.3791028121      -31.3348820934  MEOH      2092            0.0000000000
     36775      2784  MEOH      DO1           -19.5203147013       -9.3857131819      -31.3378130276  MEOH      2092            0.0000000000
     36776      2784  MEOH      HO1           -20.1966836711       -9.6467748190      -31.9901069879  MEOH      2092            0.0000000000
     36777      2784  MEOH      HO2           -18.6497526161       -9.0787722731      -31.5991760433  MEOH      2092            0.0000000000
     36778      2784  MEOH      H1A           -19.4597795874       -8.0230202136      -29.7393042210  MEOH      2092            0.0000000000
     36779      2784  MEOH      H1B           -21.1014394820       -8.6232202152      -30.1831735194  MEOH      2092            0.0000000000
     36780      2784  MEOH      H1C           -20.2607402978       -7.4209070576      -31.2447125359  MEOH      2092            0.0000000000
     36781      2784  MEOH      LP1A          -19.3556070558       -9.2520155888      -31.6082590678  MEOH      2092            0.0000000000
     36782      2784  MEOH      LP1B          -19.6040302301       -9.6848927021      -31.1799455950  MEOH      2092            0.0000000000
     36783      2785  MEOH      C1              7.3849774256        9.4884291879      -36.3690018311  MEOH      2093            0.0000000000
     36784      2785  MEOH      DC1             7.4022671236        9.4935937545      -36.3753428477  MEOH      2093            0.0000000000
     36785      2785  MEOH      O1              8.6257268707        9.7190561302      -37.0502207065  MEOH      2093            0.0000000000
     36786      2785  MEOH      DO1             8.6287743326        9.7237451901      -37.0605396322  MEOH      2093            0.0000000000
     36787      2785  MEOH      HO1             9.2340211203       10.1644824752      -36.4399146545  MEOH      2093            0.0000000000
     36788      2785  MEOH      HO2             8.8789094150        8.8736512770      -37.4528237803  MEOH      2093            0.0000000000
     36789      2785  MEOH      H1A             6.6493050344        9.0051186075      -37.0468794128  MEOH      2093            0.0000000000
     36790      2785  MEOH      H1B             6.9485964944       10.4499179595      -36.0234124413  MEOH      2093            0.0000000000
     36791      2785  MEOH      H1C             7.5315657249        8.7987042476      -35.5104493414  MEOH      2093            0.0000000000
     36792      2785  MEOH      LP1A            8.8378916855        9.4437614279      -37.0090027707  MEOH      2093            0.0000000000
     36793      2785  MEOH      LP1B            8.6164280214       10.0279108482      -37.2146052999  MEOH      2093            0.0000000000
     36794      2786  MEOH      C1            -23.3871589033       20.5965390250      -25.4438518737  MEOH      2094            0.0000000000
     36795      2786  MEOH      DC1           -23.3917538765       20.5980243990      -25.4660907156  MEOH      2094            0.0000000000
     36796      2786  MEOH      O1            -23.1128588212       21.4804387628      -24.3584368664  MEOH      2094            0.0000000000
     36797      2786  MEOH      DO1           -23.1223305126       21.4760655159      -24.3710251885  MEOH      2094            0.0000000000
     36798      2786  MEOH      HO1           -22.6173330462       22.2522072284      -24.6742337026  MEOH      2094            0.0000000000
     36799      2786  MEOH      HO2           -23.9420084543       21.5713365222      -23.8633121505  MEOH      2094            0.0000000000
     36800      2786  MEOH      H1A           -23.7624199606       19.6325721648      -25.0385519460  MEOH      2094            0.0000000000
     36801      2786  MEOH      H1B           -22.4582857651       20.3992056225      -26.0205452254  MEOH      2094            0.0000000000
     36802      2786  MEOH      H1C           -24.1721163230       21.0388367577      -26.0938792315  MEOH      2094            0.0000000000
     36803      2786  MEOH      LP1A          -23.3751918758       21.7090913392      -24.3210287418  MEOH      2094            0.0000000000
     36804      2786  MEOH      LP1B          -22.8099232361       21.3930197128      -24.2064897013  MEOH      2094            0.0000000000
     36805      2787  MEOH      C1            -20.5078428664      -11.4554890949      -16.8453480915  MEOH      2095            0.0000000000
     36806      2787  MEOH      DC1           -20.5216164525      -11.4931450030      -16.8360707928  MEOH      2095            0.0000000000
     36807      2787  MEOH      O1            -21.0003091983      -12.6757079948      -16.2935472344  MEOH      2095            0.0000000000
     36808      2787  MEOH      DO1           -21.0121986479      -12.6908028064      -16.2852571018  MEOH      2095            0.0000000000
     36809      2787  MEOH      HO1           -21.4345714849      -13.1499883744      -17.0197527068  MEOH      2095            0.0000000000
     36810      2787  MEOH      HO2           -20.2418242376      -13.0727347256      -15.8375095820  MEOH      2095            0.0000000000
     36811      2787  MEOH      H1A           -20.0470335442      -10.8392047756      -16.0439933592  MEOH      2095            0.0000000000
     36812      2787  MEOH      H1B           -21.3272657018      -10.8670691128      -17.3107824494  MEOH      2095            0.0000000000
     36813      2787  MEOH      H1C           -19.7261581069      -11.6443445398      -17.6119141742  MEOH      2095            0.0000000000
     36814      2787  MEOH      LP1A          -20.7551770746      -12.9245596234      -16.3155269731  MEOH      2095            0.0000000000
     36815      2787  MEOH      LP1B          -21.3238833459      -12.6286429452      -16.1687087303  MEOH      2095            0.0000000000
     36816      2788  MEOH      C1              7.1555276083       -2.7329014895       -0.7576716647  MEOH      2096            0.0000000000
     36817      2788  MEOH      DC1             7.1607223119       -2.7351874932       -0.7342176434  MEOH      2096            0.0000000000
     36818      2788  MEOH      O1              6.5364920969       -2.0726034393        0.3399939059  MEOH      2096            0.0000000000
     36819      2788  MEOH      DO1             6.5303603050       -2.0678070126        0.3552682878  MEOH      2096            0.0000000000
     36820      2788  MEOH      HO1             6.8906954858       -2.4942666060        1.1385176271  MEOH      2096            0.0000000000
     36821      2788  MEOH      HO2             6.6949560516       -1.1273587513        0.1906565176  MEOH      2096            0.0000000000
     36822      2788  MEOH      H1A             6.8001827683       -2.2920738364       -1.7135597464  MEOH      2096            0.0000000000
     36823      2788  MEOH      H1B             6.9018257154       -3.8145439249       -0.7552236049  MEOH      2096            0.0000000000
     36824      2788  MEOH      H1C             8.2566882112       -2.6064011773       -0.6817506637  MEOH      2096            0.0000000000
     36825      2788  MEOH      LP1A            6.7268702620       -1.7948477432        0.4354293685  MEOH      2096            0.0000000000
     36826      2788  MEOH      LP1B            6.2361561014       -2.2325322414        0.4219760263  MEOH      2096            0.0000000000
     36827      2789  MEOH      C1            -32.7907150757        3.0203006434      -18.4850763004  MEOH      2097            0.0000000000
     36828      2789  MEOH      DC1           -32.7980611190        3.0289014134      -18.4770592903  MEOH      2097            0.0000000000
     36829      2789  MEOH      O1            -33.0908723190        4.2934184841      -17.9019445642  MEOH      2097            0.0000000000
     36830      2789  MEOH      DO1           -33.0980368435        4.3011184733      -17.9077551677  MEOH      2097            0.0000000000
     36831      2789  MEOH      HO1           -32.2567676243        4.6843138523      -17.5980199515  MEOH      2097            0.0000000000
     36832      2789  MEOH      HO2           -33.6567220901        4.7584840360      -18.5378911570  MEOH      2097            0.0000000000
     36833      2789  MEOH      H1A           -33.7353879301        2.4924325791      -18.7366106036  MEOH      2097            0.0000000000
     36834      2789  MEOH      H1B           -32.2169837219        2.3894298381      -17.7729278884  MEOH      2097            0.0000000000
     36835      2789  MEOH      H1C           -32.1827897455        3.1506255778      -19.4058168752  MEOH      2097            0.0000000000
     36836      2789  MEOH      LP1A          -33.0820047735        4.5426475801      -18.1475178208  MEOH      2097            0.0000000000
     36837      2789  MEOH      LP1B          -33.1610583696        4.2554391976      -17.5611638545  MEOH      2097            0.0000000000
     36838      2790  MEOH      C1             16.9037610519      -33.5664005725        4.0613133986  MEOH      2098            0.0000000000
     36839      2790  MEOH      DC1            16.9091946674      -33.5671604977        4.0509386063  MEOH      2098            0.0000000000
     36840      2790  MEOH      O1             18.1494482386      -33.1131390479        4.5815278182  MEOH      2098            0.0000000000
     36841      2790  MEOH      DO1            18.1546573595      -33.1302704035        4.5744797202  MEOH      2098            0.0000000000
     36842      2790  MEOH      HO1            18.7967931340      -33.1262782481        3.8592592063  MEOH      2098            0.0000000000
     36843      2790  MEOH      HO2            17.9458275473      -32.2598915346        4.9955414601  MEOH      2098            0.0000000000
     36844      2790  MEOH      H1A            16.1297719215      -33.5370999261        4.8578077799  MEOH      2098            0.0000000000
     36845      2790  MEOH      H1B            16.9973881725      -34.6096481295        3.6909223922  MEOH      2098            0.0000000000
     36846      2790  MEOH      H1C            16.5918721910      -32.8941325411        3.2336044930  MEOH      2098            0.0000000000
     36847      2790  MEOH      LP1A           18.1715659106      -32.7650117610        4.5529236109  MEOH      2098            0.0000000000
     36848      2790  MEOH      LP1B           18.3319573155      -33.3837168849        4.7079322127  MEOH      2098            0.0000000000
     36849      2791  MEOH      C1            -17.8583694057      -33.1961641246       22.1402311892  MEOH      2099            0.0000000000
     36850      2791  MEOH      DC1           -17.8615584852      -33.2033728823       22.1422952945  MEOH      2099            0.0000000000
     36851      2791  MEOH      O1            -17.3349643020      -32.0165746933       22.7518769493  MEOH      2099            0.0000000000
     36852      2791  MEOH      DO1           -17.3260602859      -32.0265967223       22.7511029335  MEOH      2099            0.0000000000
     36853      2791  MEOH      HO1           -17.7395672377      -31.2533134186       22.3107095303  MEOH      2099            0.0000000000
     36854      2791  MEOH      HO2           -17.4667032383      -32.1393204403       23.7050182475  MEOH      2099            0.0000000000
     36855      2791  MEOH      H1A           -17.3787268836      -34.0841511118       22.6047127963  MEOH      2099            0.0000000000
     36856      2791  MEOH      H1B           -17.6402895465      -33.2021048688       21.0508612413  MEOH      2099            0.0000000000
     36857      2791  MEOH      H1C           -18.9570158399      -33.2508478798       22.2961372492  MEOH      2099            0.0000000000
     36858      2791  MEOH      LP1A          -17.5337704976      -31.9250589792       23.0250087319  MEOH      2099            0.0000000000
     36859      2791  MEOH      LP1B          -17.0420546507      -31.9168087486       22.5883205602  MEOH      2099            0.0000000000
     36860      2792  MEOH      C1            -12.5543474562       28.1896321240       -4.3514296731  MEOH      2100            0.0000000000
     36861      2792  MEOH      DC1           -12.5594699245       28.1958363264       -4.3405984537  MEOH      2100            0.0000000000
     36862      2792  MEOH      O1            -11.2622362810       27.7976928175       -4.8153345787  MEOH      2100            0.0000000000
     36863      2792  MEOH      DO1           -11.2667429160       27.8130856569       -4.8198645993  MEOH      2100            0.0000000000
     36864      2792  MEOH      HO1           -10.6409341656       27.8457446852       -4.0719808948  MEOH      2100            0.0000000000
     36865      2792  MEOH      HO2           -11.3971141056       26.9454460684       -5.2584863046  MEOH      2100            0.0000000000
     36866      2792  MEOH      H1A           -13.2875663480       28.0827547205       -5.1792510773  MEOH      2100            0.0000000000
     36867      2792  MEOH      H1B           -12.5386154596       29.2489434178       -4.0168656459  MEOH      2100            0.0000000000
     36868      2792  MEOH      H1C           -12.8640653990       27.5306764159       -3.5122794057  MEOH      2100            0.0000000000
     36869      2792  MEOH      LP1A          -11.2234029653       27.4513619142       -4.7829790687  MEOH      2100            0.0000000000
     36870      2792  MEOH      LP1B          -11.0886748967       28.0766460888       -4.9360056951  MEOH      2100            0.0000000000
     36871      2793  MEOH      C1            -16.4336629509        7.9804935282       32.8278298946  MEOH      2101            0.0000000000
     36872      2793  MEOH      DC1           -16.4408090221        7.9925536541       32.8086923435  MEOH      2101            0.0000000000
     36873      2793  MEOH      O1            -15.1202136450        8.1178023392       33.3684841794  MEOH      2101            0.0000000000
     36874      2793  MEOH      DO1           -15.1251279081        8.1281885580       33.3554377944  MEOH      2101            0.0000000000
     36875      2793  MEOH      HO1           -15.0072741308        7.4208674407       34.0336356022  MEOH      2101            0.0000000000
     36876      2793  MEOH      HO2           -14.5174432703        8.1802422465       32.6110746909  MEOH      2101            0.0000000000
     36877      2793  MEOH      H1A           -16.6642951387        8.8422905904       32.1656851832  MEOH      2101            0.0000000000
     36878      2793  MEOH      H1B           -17.1762832472        7.9377047115       33.6530602946  MEOH      2101            0.0000000000
     36879      2793  MEOH      H1C           -16.4932269028        7.0326740441       32.2512786295  MEOH      2101            0.0000000000
     36880      2793  MEOH      LP1A          -14.8925812525        7.9315896624       33.1787255621  MEOH      2101            0.0000000000
     36881      2793  MEOH      LP1B          -15.1255852708        8.3360370088       33.6420619100  MEOH      2101            0.0000000000
     36882      2794  MEOH      C1            -36.3780040971      -13.3013869286       -1.6445825053  MEOH      2102            0.0000000000
     36883      2794  MEOH      DC1           -36.3732909264      -13.3143282382       -1.6571231097  MEOH      2102            0.0000000000
     36884      2794  MEOH      O1            -36.4518208001      -11.9453211905       -2.0825118981  MEOH      2102            0.0000000000
     36885      2794  MEOH      DO1           -36.4516115856      -11.9512305932       -2.0851640464  MEOH      2102            0.0000000000
     36886      2794  MEOH      HO1           -36.7566300416      -11.4183441300       -1.3273387360  MEOH      2102            0.0000000000
     36887      2794  MEOH      HO2           -35.5958408545      -11.7546966054       -2.4970726299  MEOH      2102            0.0000000000
     36888      2794  MEOH      H1A           -36.1343891351      -13.9512711189       -2.5121211439  MEOH      2102            0.0000000000
     36889      2794  MEOH      H1B           -37.3559591889      -13.6103654771       -1.2174325355  MEOH      2102            0.0000000000
     36890      2794  MEOH      H1C           -35.5937216560      -13.4126994109       -0.8655885488  MEOH      2102            0.0000000000
     36891      2794  MEOH      LP1A          -36.1443445040      -11.7861159394       -2.0314040184  MEOH      2102            0.0000000000
     36892      2794  MEOH      LP1B          -36.7680908737      -11.8801763776       -2.2175281707  MEOH      2102            0.0000000000
     36893      2795  MEOH      C1            -11.5031490230      -36.5914789980       13.6517924400  MEOH      2103            0.0000000000
     36894      2795  MEOH      DC1           -11.5105393930      -36.5868135302       13.6503918646  MEOH      2103            0.0000000000
     36895      2795  MEOH      O1            -11.8980125458      -36.0852620091       14.9323405426  MEOH      2103            0.0000000000
     36896      2795  MEOH      DO1           -11.9074401755      -36.0866492219       14.9329929608  MEOH      2103            0.0000000000
     36897      2795  MEOH      HO1           -11.2117232206      -35.4640788602       15.2222344184  MEOH      2103            0.0000000000
     36898      2795  MEOH      HO2           -12.8215093651      -35.8020632970       14.8437283876  MEOH      2103            0.0000000000
     36899      2795  MEOH      H1A           -12.1942604988      -37.3948896421       13.3182999111  MEOH      2103            0.0000000000
     36900      2795  MEOH      H1B           -10.4779911262      -37.0155736663       13.7110883025  MEOH      2103            0.0000000000
     36901      2795  MEOH      H1C           -11.5344183752      -35.7796251020       12.8940085136  MEOH      2103            0.0000000000
     36902      2795  MEOH      LP1A          -12.0966147947      -35.7998757723       14.8921927834  MEOH      2103            0.0000000000
     36903      2795  MEOH      LP1B          -11.7749047758      -36.2924765889       15.1861250868  MEOH      2103            0.0000000000
     36904      2796  MEOH      C1              4.9220273596      -27.4977844990       -8.7681728257  MEOH      2104            0.0000000000
     36905      2796  MEOH      DC1             4.9245235131      -27.4990967772       -8.7850651683  MEOH      2104            0.0000000000
     36906      2796  MEOH      O1              4.6559492545      -26.3436168090       -9.5679064320  MEOH      2104            0.0000000000
     36907      2796  MEOH      DO1             4.6596071436      -26.3437213702       -9.5741632191  MEOH      2104            0.0000000000
     36908      2796  MEOH      HO1             3.6959623447      -26.2048791022       -9.5591324689  MEOH      2104            0.0000000000
     36909      2796  MEOH      HO2             5.2420279707      -25.6493281257       -9.2282375305  MEOH      2104            0.0000000000
     36910      2796  MEOH      H1A             6.0093733068      -27.7217451631       -8.8110845106  MEOH      2104            0.0000000000
     36911      2796  MEOH      H1B             4.3614448496      -28.3772689758       -9.1510243694  MEOH      2104            0.0000000000
     36912      2796  MEOH      H1C             4.6394718434      -27.3153156133       -7.7093109426  MEOH      2104            0.0000000000
     36913      2796  MEOH      LP1A            4.6693339648      -26.0552126672       -9.3700582565  MEOH      2104            0.0000000000
     36914      2796  MEOH      LP1B            4.6092209526      -26.4375317352       -9.9018172770  MEOH      2104            0.0000000000
     36915      2797  MEOH      C1            -31.5500003728       -0.9548577700      -16.4877296673  MEOH      2105            0.0000000000
     36916      2797  MEOH      DC1           -31.5591056340       -0.9459389503      -16.4940973834  MEOH      2105            0.0000000000
     36917      2797  MEOH      O1            -32.9056205508       -1.2287103463      -16.8532349640  MEOH      2105            0.0000000000
     36918      2797  MEOH      DO1           -32.9172829283       -1.2155851548      -16.8543933162  MEOH      2105            0.0000000000
     36919      2797  MEOH      HO1           -33.4338357463       -1.1634804707      -16.0422887437  MEOH      2105            0.0000000000
     36920      2797  MEOH      HO2           -33.0968712389       -0.6848687504      -17.6333371963  MEOH      2105            0.0000000000
     36921      2797  MEOH      H1A           -30.8758066252       -1.1915128124      -17.3384812072  MEOH      2105            0.0000000000
     36922      2797  MEOH      H1B           -31.2589222445       -1.5787305321      -15.6157335091  MEOH      2105            0.0000000000
     36923      2797  MEOH      H1C           -31.4301348250        0.1151946936      -16.2139761691  MEOH      2105            0.0000000000
     36924      2797  MEOH      LP1A          -33.0665258329       -0.9323664779      -16.9469889068  MEOH      2105            0.0000000000
     36925      2797  MEOH      LP1B          -32.9683590883       -1.5723590580      -16.8315684260  MEOH      2105            0.0000000000
     36926      2798  MEOH      C1             24.5949104857       20.3603354714        9.9542749554  MEOH      2106            0.0000000000
     36927      2798  MEOH      DC1            24.6013644700       20.3624983560        9.9425745710  MEOH      2106            0.0000000000
     36928      2798  MEOH      O1             25.7039292142       19.9356074233        9.1571395719  MEOH      2106            0.0000000000
     36929      2798  MEOH      DO1            25.7099754510       19.9430082192        9.1458049363  MEOH      2106            0.0000000000
     36930      2798  MEOH      HO1            26.2902375786       20.7015288380        9.0546364520  MEOH      2106            0.0000000000
     36931      2798  MEOH      HO2            26.0377336924       19.1284160309        9.5789412154  MEOH      2106            0.0000000000
     36932      2798  MEOH      H1A            23.8884418557       19.5137551573       10.0903809705  MEOH      2106            0.0000000000
     36933      2798  MEOH      H1B            24.0600012698       21.1977365551        9.4573317436  MEOH      2106            0.0000000000
     36934      2798  MEOH      H1C            24.9489406023       20.6927435364       10.9535189478  MEOH      2106            0.0000000000
     36935      2798  MEOH      LP1A           25.9566356880       19.8071140979        9.3623928385  MEOH      2106            0.0000000000
     36936      2798  MEOH      LP1B           25.6323302233       19.9824803135        8.8177629129  MEOH      2106            0.0000000000
     36937      2799  MEOH      C1            -35.5718619227      -28.4188341411       34.1060438830  MEOH      2107            0.0000000000
     36938      2799  MEOH      DC1           -35.5796516172      -28.4302329164       34.1081009377  MEOH      2107            0.0000000000
     36939      2799  MEOH      O1            -35.0911111811      -27.3692819265       33.2734995670  MEOH      2107            0.0000000000
     36940      2799  MEOH      DO1           -35.1117427528      -27.3762704679       33.2717351592  MEOH      2107            0.0000000000
     36941      2799  MEOH      HO1           -35.2071840647      -26.5350792246       33.7546782632  MEOH      2107            0.0000000000
     36942      2799  MEOH      HO2           -34.1884186406      -27.6355726727       33.0386902482  MEOH      2107            0.0000000000
     36943      2799  MEOH      H1A           -35.3530129831      -29.3995847482       33.6321721820  MEOH      2107            0.0000000000
     36944      2799  MEOH      H1B           -36.6730723553      -28.3243374550       34.2188577098  MEOH      2107            0.0000000000
     36945      2799  MEOH      H1C           -35.0804379471      -28.3765302538       35.1015507182  MEOH      2107            0.0000000000
     36946      2799  MEOH      LP1A          -34.7494746146      -27.3185126322       33.3301293747  MEOH      2107            0.0000000000
     36947      2799  MEOH      LP1B          -35.3492037038      -27.2511712286       33.0687115967  MEOH      2107            0.0000000000
     36948      2800  MEOH      C1            -33.9192900506        3.9514808206      -21.8906434385  MEOH      2108            0.0000000000
     36949      2800  MEOH      DC1           -33.9257157722        3.9660878701      -21.8912566619  MEOH      2108            0.0000000000
     36950      2800  MEOH      O1            -32.6618260639        3.2775507667      -21.9416820117  MEOH      2108            0.0000000000
     36951      2800  MEOH      DO1           -32.6694973438        3.2900499554      -21.9404793821  MEOH      2108            0.0000000000
     36952      2800  MEOH      HO1           -32.7557158488        2.4268128477      -21.4852505248  MEOH      2108            0.0000000000
     36953      2800  MEOH      HO2           -32.3928996276        3.2874320701      -22.8736052552  MEOH      2108            0.0000000000
     36954      2800  MEOH      H1A           -33.8053277103        4.9529717737      -22.3579222176  MEOH      2108            0.0000000000
     36955      2800  MEOH      H1B           -34.2478407149        4.0722651659      -20.8362305197  MEOH      2108            0.0000000000
     36956      2800  MEOH      H1C           -34.6842465541        3.3757935254      -22.4543336778  MEOH      2108            0.0000000000
     36957      2800  MEOH      LP1A          -32.6418761234        3.0831912706      -22.2320720703  MEOH      2108            0.0000000000
     36958      2800  MEOH      LP1B          -32.4664026784        3.3677063652      -21.6656717429  MEOH      2108            0.0000000000
     36959      2801  MEOH      C1             36.3867575658      -19.0105047632       22.7755544378  MEOH      2109            0.0000000000
     36960      2801  MEOH      DC1            36.3861716050      -18.9980118300       22.7767926511  MEOH      2109            0.0000000000
     36961      2801  MEOH      O1             35.8617426145      -20.0538967206       23.6020023801  MEOH      2109            0.0000000000
     36962      2801  MEOH      DO1            35.8771889613      -20.0438838199       23.6107240278  MEOH      2109            0.0000000000
     36963      2801  MEOH      HO1            35.2106452104      -19.6795211118       24.2158550284  MEOH      2109            0.0000000000
     36964      2801  MEOH      HO2            35.5903179045      -20.7614090607       22.9964820117  MEOH      2109            0.0000000000
     36965      2801  MEOH      H1A            37.1131767114      -19.4495130153       22.0586806834  MEOH      2109            0.0000000000
     36966      2801  MEOH      H1B            36.9216899595      -18.2609968141       23.3971702101  MEOH      2109            0.0000000000
     36967      2801  MEOH      H1C            35.5650330952      -18.5225387952       22.2090042550  MEOH      2109            0.0000000000
     36968      2801  MEOH      LP1A           35.5827160469      -20.1991764875       23.4485815081  MEOH      2109            0.0000000000
     36969      2801  MEOH      LP1B           36.0596116603      -20.0908252587       23.8883310789  MEOH      2109            0.0000000000
     36970      2802  MEOH      C1             -4.6938547050       -7.4592638853      -10.6187142814  MEOH      2110            0.0000000000
     36971      2802  MEOH      DC1            -4.6960006919       -7.4618984795      -10.6022741103  MEOH      2110            0.0000000000
     36972      2802  MEOH      O1             -3.4234307641       -7.7289490775      -10.0547585468  MEOH      2110            0.0000000000
     36973      2802  MEOH      DO1            -3.4336482694       -7.7341982455      -10.0492394461  MEOH      2110            0.0000000000
     36974      2802  MEOH      HO1            -3.4817793965       -8.5041538136       -9.4746266185  MEOH      2110            0.0000000000
     36975      2802  MEOH      HO2            -2.8015087009       -7.7297687047      -10.7991457287  MEOH      2110            0.0000000000
     36976      2802  MEOH      H1A            -4.6469336752       -6.4896357108      -11.1590295790  MEOH      2110            0.0000000000
     36977      2802  MEOH      H1B            -5.4593789955       -7.4155108163       -9.8147371489  MEOH      2110            0.0000000000
     36978      2802  MEOH      H1C            -4.9780645375       -8.2564696439      -11.3384425295  MEOH      2110            0.0000000000
     36979      2802  MEOH      LP1A           -3.2424383059       -7.9430270989      -10.2643112390  MEOH      2110            0.0000000000
     36980      2802  MEOH      LP1B           -3.3851929709       -7.5515109675       -9.7555034912  MEOH      2110            0.0000000000
     36981      2803  MEOH      C1            -34.2972650943       23.4775729345       31.7962378208  MEOH      2111            0.0000000000
     36982      2803  MEOH      DC1           -34.2963125327       23.4850297359       31.7795244676  MEOH      2111            0.0000000000
     36983      2803  MEOH      O1            -32.9570431999       23.4175540529       32.2942596478  MEOH      2111            0.0000000000
     36984      2803  MEOH      DO1           -32.9506827948       23.4216630793       32.2812671496  MEOH      2111            0.0000000000
     36985      2803  MEOH      HO1           -32.3865284844       23.9240746058       31.6952188404  MEOH      2111            0.0000000000
     36986      2803  MEOH      HO2           -33.0133976035       23.6644133950       33.2306274432  MEOH      2111            0.0000000000
     36987      2803  MEOH      H1A           -34.9638598501       22.8985060346       32.4705181475  MEOH      2111            0.0000000000
     36988      2803  MEOH      H1B           -34.3530213313       23.0250524383       30.7831053304  MEOH      2111            0.0000000000
     36989      2803  MEOH      H1C           -34.6486984657       24.5308704512       31.7590904565  MEOH      2111            0.0000000000
     36990      2803  MEOH      LP1A          -32.9006827095       23.6805233566       32.5182476842  MEOH      2111            0.0000000000
     36991      2803  MEOH      LP1B          -32.7927363991       23.1380701333       32.1623808630  MEOH      2111            0.0000000000
     36992      2804  MEOH      C1             -2.0628479733      -33.5312126334       33.4836047769  MEOH      2112            0.0000000000
     36993      2804  MEOH      DC1            -2.0626207641      -33.5289220718       33.4882190347  MEOH      2112            0.0000000000
     36994      2804  MEOH      O1             -3.1765911919      -34.2705975654       33.9833308833  MEOH      2112            0.0000000000
     36995      2804  MEOH      DO1            -3.1693710305      -34.2701575620       33.9898009446  MEOH      2112            0.0000000000
     36996      2804  MEOH      HO1            -3.7897969714      -33.6405624052       34.3931288458  MEOH      2112            0.0000000000
     36997      2804  MEOH      HO2            -3.4864396143      -34.8004183302       33.2322091141  MEOH      2112            0.0000000000
     36998      2804  MEOH      H1A            -1.3493063014      -34.2299702435       32.9968634848  MEOH      2112            0.0000000000
     36999      2804  MEOH      H1B            -1.5613072523      -33.0029594645       34.3224888539  MEOH      2112            0.0000000000
     37000      2804  MEOH      H1C            -2.3887490174      -32.7861848809       32.7266086351  MEOH      2112            0.0000000000
     37001      2804  MEOH      LP1A           -3.4217249702      -34.3000762545       33.7352574313  MEOH      2112            0.0000000000
     37002      2804  MEOH      LP1B           -3.1135384778      -34.3748851665       34.3114291179  MEOH      2112            0.0000000000
     37003      2805  MEOH      C1              6.0328056809       -6.7034717967       21.9045926326  MEOH      2113            0.0000000000
     37004      2805  MEOH      DC1             6.0295104611       -6.7116946938       21.9078008339  MEOH      2113            0.0000000000
     37005      2805  MEOH      O1              5.4328718495       -5.5556599468       21.3021423261  MEOH      2113            0.0000000000
     37006      2805  MEOH      DO1             5.4252846124       -5.5652905289       21.2994299386  MEOH      2113            0.0000000000
     37007      2805  MEOH      HO1             4.5152330690       -5.5013668985       21.6118055861  MEOH      2113            0.0000000000
     37008      2805  MEOH      HO2             6.0379820078       -4.8215063436       21.4912459572  MEOH      2113            0.0000000000
     37009      2805  MEOH      H1A             7.0907418871       -6.7825950544       21.5746964463  MEOH      2113            0.0000000000
     37010      2805  MEOH      H1B             5.4875973899       -7.6221727115       21.5995392756  MEOH      2113            0.0000000000
     37011      2805  MEOH      H1C             6.0157230950       -6.6006767124       23.0106949589  MEOH      2113            0.0000000000
     37012      2805  MEOH      LP1A            5.4843388447       -5.2740787786       21.5035453900  MEOH      2113            0.0000000000
     37013      2805  MEOH      LP1B            5.2907050702       -5.6425494616       20.9943456090  MEOH      2113            0.0000000000
     37014      2806  MEOH      C1             13.9442315686      -29.0536675069      -11.1654266415  MEOH      2114            0.0000000000
     37015      2806  MEOH      DC1            13.9437266225      -29.0448545253      -11.1737263441  MEOH      2114            0.0000000000
     37016      2806  MEOH      O1             14.6332131457      -28.7186306938       -9.9562858866  MEOH      2114            0.0000000000
     37017      2806  MEOH      DO1            14.6380441286      -28.6914980430       -9.9739848750  MEOH      2114            0.0000000000
     37018      2806  MEOH      HO1            15.2118171005      -29.4592320619       -9.7162294801  MEOH      2114            0.0000000000
     37019      2806  MEOH      HO2            14.9495809005      -27.8065628507      -10.0508569882  MEOH      2114            0.0000000000
     37020      2806  MEOH      H1A            13.0102934473      -28.4559046259      -11.2344202954  MEOH      2114            0.0000000000
     37021      2806  MEOH      H1B            13.6574917726      -30.1270206953      -11.1691978790  MEOH      2114            0.0000000000
     37022      2806  MEOH      H1C            14.5678486873      -28.8345353569      -12.0584013288  MEOH      2114            0.0000000000
     37023      2806  MEOH      LP1A           14.9318868178      -28.5521166746      -10.0308990154  MEOH      2114            0.0000000000
     37024      2806  MEOH      LP1B           14.4444044473      -28.8189650755       -9.6791861081  MEOH      2114            0.0000000000
     37025      2807  MEOH      C1              1.0263485640      -25.5365651386      -24.6685488266  MEOH      2115            0.0000000000
     37026      2807  MEOH      DC1             1.0217879890      -25.5438332477      -24.6781981846  MEOH      2115            0.0000000000
     37027      2807  MEOH      O1              1.2673538471      -26.5881191089      -23.7326371217  MEOH      2115            0.0000000000
     37028      2807  MEOH      DO1             1.2612413606      -26.5966169539      -23.7348559694  MEOH      2115            0.0000000000
     37029      2807  MEOH      HO1             1.0099814550      -26.2517630951      -22.8599836482  MEOH      2115            0.0000000000
     37030      2807  MEOH      HO2             0.8609370399      -27.3832031305      -24.1115391900  MEOH      2115            0.0000000000
     37031      2807  MEOH      H1A             1.4476108038      -25.8157253743      -25.6579570781  MEOH      2115            0.0000000000
     37032      2807  MEOH      H1B             1.4799472706      -24.5832417341      -24.3225087982  MEOH      2115            0.0000000000
     37033      2807  MEOH      H1C            -0.0629130890      -25.3381080310      -24.7604445741  MEOH      2115            0.0000000000
     37034      2807  MEOH      LP1A            0.9838108087      -26.7915026756      -23.7054623140  MEOH      2115            0.0000000000
     37035      2807  MEOH      LP1B            1.5950652243      -26.5677249113      -23.6114375758  MEOH      2115            0.0000000000
     37036      2808  MEOH      C1            -35.2365801322      -18.5640765513        9.9375352463  MEOH      2116            0.0000000000
     37037      2808  MEOH      DC1           -35.2445871829      -18.5640624625        9.9381778324  MEOH      2116            0.0000000000
     37038      2808  MEOH      O1            -34.9498823926      -19.7401902742        9.1742725579  MEOH      2116            0.0000000000
     37039      2808  MEOH      DO1           -34.9530423332      -19.7392262030        9.1791245003  MEOH      2116            0.0000000000
     37040      2808  MEOH      HO1           -35.7424479851      -19.9847279859        8.6713400674  MEOH      2116            0.0000000000
     37041      2808  MEOH      HO2           -34.1192567160      -19.5601770288        8.7067725933  MEOH      2116            0.0000000000
     37042      2808  MEOH      H1A           -34.3815892583      -18.3414207049       10.6111345185  MEOH      2116            0.0000000000
     37043      2808  MEOH      H1B           -36.1337654559      -18.7191635171       10.5741886290  MEOH      2116            0.0000000000
     37044      2808  MEOH      H1C           -35.3747172680      -17.6877611277        9.2687225591  MEOH      2116            0.0000000000
     37045      2808  MEOH      LP1A          -34.8193302235      -19.6513227799        8.8619286775  MEOH      2116            0.0000000000
     37046      2808  MEOH      LP1B          -35.0217938143      -20.0259482652        9.3631405489  MEOH      2116            0.0000000000
     37047      2809  MEOH      C1            -35.1887722754       -3.4080162539      -19.3158608934  MEOH      2117            0.0000000000
     37048      2809  MEOH      DC1           -35.1957565097       -3.4050159877      -19.3099011109  MEOH      2117            0.0000000000
     37049      2809  MEOH      O1            -35.7116970808       -3.5018951281      -20.6309139417  MEOH      2117            0.0000000000
     37050      2809  MEOH      DO1           -35.7122512055       -3.5050426311      -20.6336575939  MEOH      2117            0.0000000000
     37051      2809  MEOH      HO1           -36.3183663829       -4.2579197095      -20.5951481710  MEOH      2117            0.0000000000
     37052      2809  MEOH      HO2           -36.1059466926       -2.6314618215      -20.7976865519  MEOH      2117            0.0000000000
     37053      2809  MEOH      H1A           -34.2550322916       -2.8066364123      -19.3440198843  MEOH      2117            0.0000000000
     37054      2809  MEOH      H1B           -34.9907935721       -4.4345906626      -18.9400013214  MEOH      2117            0.0000000000
     37055      2809  MEOH      H1C           -35.9140604569       -2.9110537940      -18.6366655108  MEOH      2117            0.0000000000
     37056      2809  MEOH      LP1A          -35.9988006687       -3.3038399441      -20.6599944151  MEOH      2117            0.0000000000
     37057      2809  MEOH      LP1B          -35.5065359601       -3.7067556536      -20.8269779099  MEOH      2117            0.0000000000
     37058      2810  MEOH      C1            -36.7322726219      -29.9621873013        7.4666786871  MEOH      2118            0.0000000000
     37059      2810  MEOH      DC1           -36.7203352549      -29.9620307653        7.4684243202  MEOH      2118            0.0000000000
     37060      2810  MEOH      O1            -36.6475830605      -29.5574195759        8.8330707892  MEOH      2118            0.0000000000
     37061      2810  MEOH      DO1           -36.6414209135      -29.5585990760        8.8389126096  MEOH      2118            0.0000000000
     37062      2810  MEOH      HO1           -37.5430412321      -29.6328661825        9.1982590591  MEOH      2118            0.0000000000
     37063      2810  MEOH      HO2           -35.9027105604      -30.0464534097        9.2163603265  MEOH      2118            0.0000000000
     37064      2810  MEOH      H1A           -35.7519628099      -29.8045717398        6.9682100241  MEOH      2118            0.0000000000
     37065      2810  MEOH      H1B           -37.5070762904      -29.3571521258        6.9490565163  MEOH      2118            0.0000000000
     37066      2810  MEOH      H1C           -37.0038809708      -31.0375399955        7.4021303373  MEOH      2118            0.0000000000
     37067      2810  MEOH      LP1A          -36.5727229487      -29.8331806154        9.0351891029  MEOH      2118            0.0000000000
     37068      2810  MEOH      LP1B          -36.6969878210      -29.2118838679        8.8588437234  MEOH      2118            0.0000000000
     37069      2811  MEOH      C1            -25.8153016373      -26.5034995299       33.2325471140  MEOH      2119            0.0000000000
     37070      2811  MEOH      DC1           -25.8028402202      -26.5051393786       33.2325272513  MEOH      2119            0.0000000000
     37071      2811  MEOH      O1            -24.9641595494      -26.0455324980       32.1787677122  MEOH      2119            0.0000000000
     37072      2811  MEOH      DO1           -24.9538850711      -26.0456228833       32.1827667695  MEOH      2119            0.0000000000
     37073      2811  MEOH      HO1           -25.4995372776      -26.0166898263       31.3704121036  MEOH      2119            0.0000000000
     37074      2811  MEOH      HO2           -24.5328866774      -25.2443728884       32.5149923243  MEOH      2119            0.0000000000
     37075      2811  MEOH      H1A           -25.2129362927      -26.6496833323       34.1545597430  MEOH      2119            0.0000000000
     37076      2811  MEOH      H1B           -26.2833733912      -27.4726596108       32.9569412887  MEOH      2119            0.0000000000
     37077      2811  MEOH      H1C           -26.6188966934      -25.7617273296       33.4283275768  MEOH      2119            0.0000000000
     37078      2811  MEOH      LP1A          -24.9728533507      -25.6960827693       32.1611806455  MEOH      2119            0.0000000000
     37079      2811  MEOH      LP1B          -24.8042135934      -26.3175246910       32.0273162741  MEOH      2119            0.0000000000
     37080      2812  MEOH      C1             35.2304496290       35.4583405153       24.3330974069  MEOH      2120            0.0000000000
     37081      2812  MEOH      DC1            35.2441436197       35.4605376835       24.3344115211  MEOH      2120            0.0000000000
     37082      2812  MEOH      O1             36.2567045886       35.1773678294       25.2749647355  MEOH      2120            0.0000000000
     37083      2812  MEOH      DO1            36.2805114143       35.1702532070       25.2816688141  MEOH      2120            0.0000000000
     37084      2812  MEOH      HO1            37.0482078855       34.9559482720       24.7597988288  MEOH      2120            0.0000000000
     37085      2812  MEOH      HO2            36.2492302772       35.8917805991       25.9310581200  MEOH      2120            0.0000000000
     37086      2812  MEOH      H1A            34.2645950649       35.6025564572       24.8628593570  MEOH      2120            0.0000000000
     37087      2812  MEOH      H1B            35.1359861377       34.6060678423       23.6266776027  MEOH      2120            0.0000000000
     37088      2812  MEOH      H1C            35.4903718780       36.3842900304       23.7768789947  MEOH      2120            0.0000000000
     37089      2812  MEOH      LP1A           36.4273586174       35.4716147420       25.3574023297  MEOH      2120            0.0000000000
     37090      2812  MEOH      LP1B           36.2516320389       34.8378454867       25.3598107611  MEOH      2120            0.0000000000
     37091      2813  MEOH      C1             30.8171768984      -32.5227372917       19.8861389705  MEOH      2121            0.0000000000
     37092      2813  MEOH      DC1            30.8220521434      -32.5306478168       19.8808174174  MEOH      2121            0.0000000000
     37093      2813  MEOH      O1             30.7084555857      -33.8610224252       19.4067706104  MEOH      2121            0.0000000000
     37094      2813  MEOH      DO1            30.7205235926      -33.8676023688       19.3963146413  MEOH      2121            0.0000000000
     37095      2813  MEOH      HO1            30.9329023173      -34.4397608894       20.1521466596  MEOH      2121            0.0000000000
     37096      2813  MEOH      HO2            29.8201142898      -33.9200778984       19.0217223093  MEOH      2121            0.0000000000
     37097      2813  MEOH      H1A            30.5006823744      -31.8191305872       19.0867080339  MEOH      2121            0.0000000000
     37098      2813  MEOH      H1B            31.8682589567      -32.2971720708       20.1666168449  MEOH      2121            0.0000000000
     37099      2813  MEOH      H1C            30.1547401075      -32.3786449006       20.7663297923  MEOH      2121            0.0000000000
     37100      2813  MEOH      LP1A           30.3816217238      -33.9779996546       19.4514467171  MEOH      2121            0.0000000000
     37101      2813  MEOH      LP1B           31.0140023963      -33.9648286061       19.2712515219  MEOH      2121            0.0000000000
     37102      2814  MEOH      C1             25.1054039602      -24.6467533835        3.4640236469  MEOH      2122            0.0000000000
     37103      2814  MEOH      DC1            25.0848703479      -24.6320583019        3.4563163504  MEOH      2122            0.0000000000
     37104      2814  MEOH      O1             25.0572386421      -23.7250844963        4.5523390749  MEOH      2122            0.0000000000
     37105      2814  MEOH      DO1            25.0477193372      -23.7143701278        4.5455053810  MEOH      2122            0.0000000000
     37106      2814  MEOH      HO1            24.8723675218      -22.8356581829        4.2122751078  MEOH      2122            0.0000000000
     37107      2814  MEOH      HO2            24.5133886754      -24.1337259377        5.2438153122  MEOH      2122            0.0000000000
     37108      2814  MEOH      H1A            25.4818106131      -25.6229010595        3.8378882590  MEOH      2122            0.0000000000
     37109      2814  MEOH      H1B            25.8026231631      -24.2835187912        2.6789968865  MEOH      2122            0.0000000000
     37110      2814  MEOH      H1C            24.0883453834      -24.7915403561        3.0409993167  MEOH      2122            0.0000000000
     37111      2814  MEOH      LP1A           24.7316373961      -23.7068278087        4.6794237789  MEOH      2122            0.0000000000
     37112      2814  MEOH      LP1B           25.3769416145      -23.5972575730        4.6151903843  MEOH      2122            0.0000000000
     37113      2815  MEOH      C1            -21.6001748009      -34.7073544090        5.7166604678  MEOH      2123            0.0000000000
     37114      2815  MEOH      DC1           -21.6040329818      -34.7092413966        5.7240426613  MEOH      2123            0.0000000000
     37115      2815  MEOH      O1            -20.2632901549      -35.2110524379        5.7576658497  MEOH      2123            0.0000000000
     37116      2815  MEOH      DO1           -20.2741876650      -35.2127994933        5.7643041058  MEOH      2123            0.0000000000
     37117      2815  MEOH      HO1           -19.9482633150      -35.3217739175        4.8469524787  MEOH      2123            0.0000000000
     37118      2815  MEOH      HO2           -19.7776765730      -34.6287739957        6.3626710281  MEOH      2123            0.0000000000
     37119      2815  MEOH      H1A           -21.9979627091      -34.6427296202        6.7519910514  MEOH      2123            0.0000000000
     37120      2815  MEOH      H1B           -22.2491523401      -35.3853320541        5.1221056206  MEOH      2123            0.0000000000
     37121      2815  MEOH      H1C           -21.6121876413      -33.6931081278        5.2633601542  MEOH      2123            0.0000000000
     37122      2815  MEOH      LP1A          -20.0356206680      -34.9454842067        5.7695030494  MEOH      2123            0.0000000000
     37123      2815  MEOH      LP1B          -20.2673531334      -35.5609683651        5.7641724704  MEOH      2123            0.0000000000
     37124      2816  MEOH      C1            -17.0211492541       23.3131141561        9.8057744446  MEOH      2124            0.0000000000
     37125      2816  MEOH      DC1           -17.0199756419       23.3171680381        9.8144992251  MEOH      2124            0.0000000000
     37126      2816  MEOH      O1            -17.9554368156       23.4894454389        8.7402352338  MEOH      2124            0.0000000000
     37127      2816  MEOH      DO1           -17.9527528940       23.4901899698        8.7502883481  MEOH      2124            0.0000000000
     37128      2816  MEOH      HO1           -17.4755492421       23.4126802261        7.9007621726  MEOH      2124            0.0000000000
     37129      2816  MEOH      HO2           -18.6889975002       22.8838144017        8.9299712843  MEOH      2124            0.0000000000
     37130      2816  MEOH      H1A           -17.5394394467       23.4634404500       10.7769069187  MEOH      2124            0.0000000000
     37131      2816  MEOH      H1B           -16.1994750766       24.0553433229        9.7148436473  MEOH      2124            0.0000000000
     37132      2816  MEOH      H1C           -16.6001316480       22.2853079656        9.7797050862  MEOH      2124            0.0000000000
     37133      2816  MEOH      LP1A          -18.0954077521       23.1811650925        8.6515145203  MEOH      2124            0.0000000000
     37134      2816  MEOH      LP1B          -17.9805464264       23.8287100093        8.6579609446  MEOH      2124            0.0000000000
     37135      2817  MEOH      C1             22.8704093084       14.5711534819      -18.9795557387  MEOH      2125            0.0000000000
     37136      2817  MEOH      DC1            22.8757380032       14.5751457343      -18.9771507097  MEOH      2125            0.0000000000
     37137      2817  MEOH      O1             21.4918926822       14.6385691869      -18.6061627864  MEOH      2125            0.0000000000
     37138      2817  MEOH      DO1            21.4977542355       14.6449559882      -18.5976756624  MEOH      2125            0.0000000000
     37139      2817  MEOH      HO1            21.0512896520       13.8643154441      -18.9899597547  MEOH      2125            0.0000000000
     37140      2817  MEOH      HO2            21.4789847548       14.7899344028      -17.6481325380  MEOH      2125            0.0000000000
     37141      2817  MEOH      H1A            23.3932983245       15.4958808407      -18.6543060051  MEOH      2125            0.0000000000
     37142      2817  MEOH      H1B            22.9550938147       14.4706270119      -20.0827528939  MEOH      2125            0.0000000000
     37143      2817  MEOH      H1C            23.3526612231       13.6940148209      -18.4974957206  MEOH      2125            0.0000000000
     37144      2817  MEOH      LP1A           21.4428490861       14.4768703051      -18.2996530846  MEOH      2125            0.0000000000
     37145      2817  MEOH      LP1B           21.3121249413       14.8213212560      -18.8444593256  MEOH      2125            0.0000000000
     37146      2818  MEOH      C1             -6.1150364664      -32.0435957379       20.1667413076  MEOH      2126            0.0000000000
     37147      2818  MEOH      DC1            -6.1082612356      -32.0334633722       20.1739518552  MEOH      2126            0.0000000000
     37148      2818  MEOH      O1             -5.6174808531      -32.9721745734       21.1312386785  MEOH      2126            0.0000000000
     37149      2818  MEOH      DO1            -5.6133932438      -32.9654804074       21.1328704645  MEOH      2126            0.0000000000
     37150      2818  MEOH      HO1            -6.3287362535      -33.6093282614       21.3016820242  MEOH      2126            0.0000000000
     37151      2818  MEOH      HO2            -4.7702236193      -33.2894412043       20.7813857599  MEOH      2126            0.0000000000
     37152      2818  MEOH      H1A            -5.3623925237      -31.2445683289       19.9952674172  MEOH      2126            0.0000000000
     37153      2818  MEOH      H1B            -7.0563926838      -31.5789939421       20.5304921079  MEOH      2126            0.0000000000
     37154      2818  MEOH      H1C            -6.3107627459      -32.5640032144       19.2048742261  MEOH      2126            0.0000000000
     37155      2818  MEOH      LP1A           -5.4576087698      -33.2383750287       20.9697511107  MEOH      2126            0.0000000000
     37156      2818  MEOH      LP1B           -5.6839430992      -32.8560066362       21.4546390190  MEOH      2126            0.0000000000
     37157      2819  MEOH      C1              1.8394717019       20.1093494551       14.4959415664  MEOH      2127            0.0000000000
     37158      2819  MEOH      DC1             1.8361785682       20.1136965706       14.5007592187  MEOH      2127            0.0000000000
     37159      2819  MEOH      O1              1.1021815061       19.3580669512       13.5409544992  MEOH      2127            0.0000000000
     37160      2819  MEOH      DO1             1.1002386329       19.3655942473       13.5417634756  MEOH      2127            0.0000000000
     37161      2819  MEOH      HO1             0.5433038796       19.9731707736       13.0407514541  MEOH      2127            0.0000000000
     37162      2819  MEOH      HO2             1.7467999665       18.7954324781       13.0839977268  MEOH      2127            0.0000000000
     37163      2819  MEOH      H1A             2.3726827859       19.4036314340       15.1682279753  MEOH      2127            0.0000000000
     37164      2819  MEOH      H1B             1.1614245839       20.7381106514       15.1117600979  MEOH      2127            0.0000000000
     37165      2819  MEOH      H1C             2.5762017342       20.7561740820       13.9732870305  MEOH      2127            0.0000000000
     37166      2819  MEOH      LP1A            1.2842618976       19.3313517569       13.2432415008  MEOH      2127            0.0000000000
     37167      2819  MEOH      LP1B            0.8009188375       19.2485911039       13.6815099806  MEOH      2127            0.0000000000
     37168      2820  MEOH      C1             25.1055263111       34.3423226804        0.2914942224  MEOH      2128            0.0000000000
     37169      2820  MEOH      DC1            25.1091468908       34.3598132330        0.2903112752  MEOH      2128            0.0000000000
     37170      2820  MEOH      O1             25.6030465232       33.3500310357        1.1873059839  MEOH      2128            0.0000000000
     37171      2820  MEOH      DO1            25.6047542269       33.3638255304        1.1870766834  MEOH      2128            0.0000000000
     37172      2820  MEOH      HO1            26.1557988429       32.7350977326        0.6801354924  MEOH      2128            0.0000000000
     37173      2820  MEOH      HO2            25.9624004460       33.8267884853        1.9518104590  MEOH      2128            0.0000000000
     37174      2820  MEOH      H1A            24.3383459975       34.9548380186        0.8116675855  MEOH      2128            0.0000000000
     37175      2820  MEOH      H1B            24.6413307401       33.8641737773       -0.5974473383  MEOH      2128            0.0000000000
     37176      2820  MEOH      H1C            25.9424732180       34.9986853418       -0.0294869813  MEOH      2128            0.0000000000
     37177      2820  MEOH      LP1A           25.9056548380       33.4562272773        1.3274864607  MEOH      2128            0.0000000000
     37178      2820  MEOH      LP1B           25.3783718925       33.0823263443        1.2061609173  MEOH      2128            0.0000000000
     37179      2821  MEOH      C1              8.7800295419       29.8190625788       16.6498434018  MEOH      2129            0.0000000000
     37180      2821  MEOH      DC1             8.7652083349       29.8284354254       16.6479309131  MEOH      2129            0.0000000000
     37181      2821  MEOH      O1              8.0460207960       30.2405119141       15.4998337923  MEOH      2129            0.0000000000
     37182      2821  MEOH      DO1             8.0431029821       30.2485557256       15.5015346184  MEOH      2129            0.0000000000
     37183      2821  MEOH      HO1             8.4036795373       29.7599093546       14.7369436268  MEOH      2129            0.0000000000
     37184      2821  MEOH      HO2             7.1080461865       30.1546880785       15.7316481621  MEOH      2129            0.0000000000
     37185      2821  MEOH      H1A             8.4545378222       30.3924805957       17.5440290197  MEOH      2129            0.0000000000
     37186      2821  MEOH      H1B             9.8654423889       29.9933917711       16.4891907198  MEOH      2129            0.0000000000
     37187      2821  MEOH      H1C             8.6126966450       28.7372708733       16.8397049567  MEOH      2129            0.0000000000
     37188      2821  MEOH      LP1A            7.7639388790       30.0378023400       15.4569546513  MEOH      2129            0.0000000000
     37189      2821  MEOH      LP1B            8.1987591181       30.5208994775       15.3564677598  MEOH      2129            0.0000000000
     37190      2822  MEOH      C1             34.0651055658       -2.6316543891       16.2561868088  MEOH      2130            0.0000000000
     37191      2822  MEOH      DC1            34.0760343367       -2.6312314150       16.2441624291  MEOH      2130            0.0000000000
     37192      2822  MEOH      O1             35.1796528024       -2.1573274554       15.4977429302  MEOH      2130            0.0000000000
     37193      2822  MEOH      DO1            35.1942066204       -2.1520774363       15.4926693824  MEOH      2130            0.0000000000
     37194      2822  MEOH      HO1            35.5798893997       -1.4655816419       16.0474686761  MEOH      2130            0.0000000000
     37195      2822  MEOH      HO2            35.6874136686       -2.9457196456       15.2497174114  MEOH      2130            0.0000000000
     37196      2822  MEOH      H1A            33.5085181769       -3.4020014946       15.6807766801  MEOH      2130            0.0000000000
     37197      2822  MEOH      H1B            33.3782009359       -1.7909320015       16.4921293787  MEOH      2130            0.0000000000
     37198      2822  MEOH      H1C            34.4231135907       -3.0743419545       17.2102198142  MEOH      2130            0.0000000000
     37199      2822  MEOH      LP1A           35.4645735726       -2.3462723065       15.5727095760  MEOH      2130            0.0000000000
     37200      2822  MEOH      LP1B           35.0789302192       -1.8963785386       15.2873608396  MEOH      2130            0.0000000000
     37201      2823  MEOH      C1             31.3672159834       10.5794746275      -15.6096516642  MEOH      2131            0.0000000000
     37202      2823  MEOH      DC1            31.3600895212       10.5852420093      -15.6125373418  MEOH      2131            0.0000000000
     37203      2823  MEOH      O1             30.8100930734       11.8723324216      -15.3393532079  MEOH      2131            0.0000000000
     37204      2823  MEOH      DO1            30.8001589615       11.8820582802      -15.3562654046  MEOH      2131            0.0000000000
     37205      2823  MEOH      HO1            30.1799499356       11.7583176986      -14.6107790730  MEOH      2131            0.0000000000
     37206      2823  MEOH      HO2            31.5744684736       12.4553429847      -15.2100128396  MEOH      2131            0.0000000000
     37207      2823  MEOH      H1A            32.0871034715       10.6482600277      -16.4530682713  MEOH      2131            0.0000000000
     37208      2823  MEOH      H1B            30.5631398665        9.8580006704      -15.8689930003  MEOH      2131            0.0000000000
     37209      2823  MEOH      H1C            31.9176191363       10.1928241268      -14.7254125789  MEOH      2131            0.0000000000
     37210      2823  MEOH      LP1A           31.0070287055       12.0407360170      -15.1040734046  MEOH      2131            0.0000000000
     37211      2823  MEOH      LP1B           30.5265560846       11.9243774170      -15.5378427402  MEOH      2131            0.0000000000
     37212      2824  MEOH      C1             -8.8561331943       29.6023386595      -26.6856872058  MEOH      2132            0.0000000000
     37213      2824  MEOH      DC1            -8.8561194862       29.5862728296      -26.6761729924  MEOH      2132            0.0000000000
     37214      2824  MEOH      O1             -7.8612768227       30.4988718605      -26.1950266469  MEOH      2132            0.0000000000
     37215      2824  MEOH      DO1            -7.8526524048       30.4876146724      -26.1940885701  MEOH      2132            0.0000000000
     37216      2824  MEOH      HO1            -8.1392203388       31.3925671020      -26.4498917447  MEOH      2132            0.0000000000
     37217      2824  MEOH      HO2            -7.7619906038       30.2816717790      -25.2548849707  MEOH      2132            0.0000000000
     37218      2824  MEOH      H1A            -8.5934052148       28.5560699883      -26.4199488414  MEOH      2132            0.0000000000
     37219      2824  MEOH      H1B            -8.9177682211       29.6768391317      -27.7924716490  MEOH      2132            0.0000000000
     37220      2824  MEOH      H1C            -9.8380134593       29.8670106960      -26.2382714502  MEOH      2132            0.0000000000
     37221      2824  MEOH      LP1A           -7.9404518306       30.5987751312      -25.8690655225  MEOH      2132            0.0000000000
     37222      2824  MEOH      LP1B           -7.6092532885       30.5405899811      -26.4342832803  MEOH      2132            0.0000000000
     37223      2825  MEOH      C1             10.0308758384       -7.4627244183      -12.7925953837  MEOH      2133            0.0000000000
     37224      2825  MEOH      DC1            10.0429771319       -7.4639167827      -12.7782019379  MEOH      2133            0.0000000000
     37225      2825  MEOH      O1              9.5863134792       -6.1990868224      -12.3047941618  MEOH      2133            0.0000000000
     37226      2825  MEOH      DO1             9.5937219427       -6.2004373592      -12.3072549696  MEOH      2133            0.0000000000
     37227      2825  MEOH      HO1             9.7437479047       -5.5262772173      -12.9855596405  MEOH      2133            0.0000000000
     37228      2825  MEOH      HO2             8.6851818163       -6.3420958684      -11.9755372108  MEOH      2133            0.0000000000
     37229      2825  MEOH      H1A             9.8263657210       -8.2483423779      -12.0341093697  MEOH      2133            0.0000000000
     37230      2825  MEOH      H1B            11.1145797056       -7.4238460380      -13.0342467883  MEOH      2133            0.0000000000
     37231      2825  MEOH      H1C             9.4713043349       -7.7252369055      -13.7157897983  MEOH      2133            0.0000000000
     37232      2825  MEOH      LP1A            9.2486530896       -6.1522161625      -12.3840948712  MEOH      2133            0.0000000000
     37233      2825  MEOH      LP1B            9.8461192094       -6.0386761110      -12.1337111812  MEOH      2133            0.0000000000
     37234      2826  MEOH      C1             13.4077296724      -24.1251930184      -25.8770972966  MEOH      2134            0.0000000000
     37235      2826  MEOH      DC1            13.4150115536      -24.1533642043      -25.8938096585  MEOH      2134            0.0000000000
     37236      2826  MEOH      O1             13.1748413489      -25.4584212900      -26.3482508844  MEOH      2134            0.0000000000
     37237      2826  MEOH      DO1            13.1937302609      -25.4798070368      -26.3746478913  MEOH      2134            0.0000000000
     37238      2826  MEOH      HO1            13.7003378184      -26.0273778241      -25.7642629368  MEOH      2134            0.0000000000
     37239      2826  MEOH      HO2            12.2106083586      -25.5634194067      -26.3596586465  MEOH      2134            0.0000000000
     37240      2826  MEOH      H1A            12.8269074118      -23.3721176551      -26.4514177635  MEOH      2134            0.0000000000
     37241      2826  MEOH      H1B            14.4849257000      -23.8638606101      -25.9524305030  MEOH      2134            0.0000000000
     37242      2826  MEOH      H1C            13.0806283056      -24.0304605927      -24.8195759191  MEOH      2134            0.0000000000
     37243      2826  MEOH      LP1A           12.8955200950      -25.5950721211      -26.1876078408  MEOH      2134            0.0000000000
     37244      2826  MEOH      LP1B           13.4083137378      -25.5404023741      -26.5957781465  MEOH      2134            0.0000000000
     37245      2827  MEOH      C1              3.6663968701       28.9944431604       -4.7675825405  MEOH      2135            0.0000000000
     37246      2827  MEOH      DC1             3.6606511466       28.9859501545       -4.7720918804  MEOH      2135            0.0000000000
     37247      2827  MEOH      O1              2.4625516598       29.6938579846       -5.0845376746  MEOH      2135            0.0000000000
     37248      2827  MEOH      DO1             2.4595942444       29.6835301139       -5.0915611198  MEOH      2135            0.0000000000
     37249      2827  MEOH      HO1             2.4080014349       30.4629415899       -4.4959506528  MEOH      2135            0.0000000000
     37250      2827  MEOH      HO2             2.4543223397       29.8005715875       -6.0486146866  MEOH      2135            0.0000000000
     37251      2827  MEOH      H1A             3.6933645851       28.0345430428       -5.3263181736  MEOH      2135            0.0000000000
     37252      2827  MEOH      H1B             3.7119892311       28.7900972035       -3.6764890219  MEOH      2135            0.0000000000
     37253      2827  MEOH      H1C             4.5476247522       29.6008782004       -5.0675741476  MEOH      2135            0.0000000000
     37254      2827  MEOH      LP1A            2.5236240383       29.9293284103       -5.3361799667  MEOH      2135            0.0000000000
     37255      2827  MEOH      LP1B            2.1972525912       29.5678883302       -4.8941484668  MEOH      2135            0.0000000000
     37256      2828  MEOH      C1            -14.4517167269       36.0942753907      -23.3897779269  MEOH      2136            0.0000000000
     37257      2828  MEOH      DC1           -14.4502404749       36.1252820926      -23.3896743494  MEOH      2136            0.0000000000
     37258      2828  MEOH      O1            -15.0956351133       36.8424013471      -24.4319393480  MEOH      2136            0.0000000000
     37259      2828  MEOH      DO1           -15.1046263284       36.8658570822      -24.4302643226  MEOH      2136            0.0000000000
     37260      2828  MEOH      HO1           -14.3945462649       37.2658728123      -24.9515991844  MEOH      2136            0.0000000000
     37261      2828  MEOH      HO2           -15.7068844432       36.2209849243      -24.8575164693  MEOH      2136            0.0000000000
     37262      2828  MEOH      H1A           -15.1518299022       35.9466010622      -22.5398633216  MEOH      2136            0.0000000000
     37263      2828  MEOH      H1B           -13.5454660370       36.6308558862      -23.0360660959  MEOH      2136            0.0000000000
     37264      2828  MEOH      H1C           -14.1426993531       35.0901860590      -23.7512110143  MEOH      2136            0.0000000000
     37265      2828  MEOH      LP1A          -15.1414809919       36.6400074242      -24.7137812459  MEOH      2136            0.0000000000
     37266      2828  MEOH      LP1B          -15.1674387559       37.1661635410      -24.3200363602  MEOH      2136            0.0000000000
     37267      2829  MEOH      C1             16.9844050836       26.7798112705      -26.7470173128  MEOH      2137            0.0000000000
     37268      2829  MEOH      DC1            16.9893706364       26.7780095231      -26.7490611522  MEOH      2137            0.0000000000
     37269      2829  MEOH      O1             17.7486785560       25.8232671186      -27.4744645511  MEOH      2137            0.0000000000
     37270      2829  MEOH      DO1            17.7490865632       25.8206854693      -27.4746263288  MEOH      2137            0.0000000000
     37271      2829  MEOH      HO1            18.6023767375       25.7385948014      -27.0217725873  MEOH      2137            0.0000000000
     37272      2829  MEOH      HO2            17.1777907359       25.0422547570      -27.5452232105  MEOH      2137            0.0000000000
     37273      2829  MEOH      H1A            16.0232384659       26.9672292570      -27.2717593746  MEOH      2137            0.0000000000
     37274      2829  MEOH      H1B            17.5494379822       27.7333362983      -26.6705395596  MEOH      2137            0.0000000000
     37275      2829  MEOH      H1C            16.7813746782       26.4078172645      -25.7200216387  MEOH      2137            0.0000000000
     37276      2829  MEOH      LP1A           17.6854524822       25.5014926997      -27.3521384013  MEOH      2137            0.0000000000
     37277      2829  MEOH      LP1B           17.9317036547       25.9829284328      -27.7264766104  MEOH      2137            0.0000000000
     37278      2830  MEOH      C1             32.0042355620       13.2707042051      -21.5254105464  MEOH      2138            0.0000000000
     37279      2830  MEOH      DC1            32.0016658363       13.2830140911      -21.5052672201  MEOH      2138            0.0000000000
     37280      2830  MEOH      O1             31.4385108738       12.3243431071      -22.4315051862  MEOH      2138            0.0000000000
     37281      2830  MEOH      DO1            31.4360536526       12.3343038978      -22.4151805554  MEOH      2138            0.0000000000
     37282      2830  MEOH      HO1            31.6635946883       12.5992130152      -23.3341035525  MEOH      2138            0.0000000000
     37283      2830  MEOH      HO2            31.7349689954       11.4564754219      -22.1155649022  MEOH      2138            0.0000000000
     37284      2830  MEOH      H1A            31.7439516631       12.9730035153      -20.4871679971  MEOH      2138            0.0000000000
     37285      2830  MEOH      H1B            31.6055183145       14.2852070982      -21.7401881960  MEOH      2138            0.0000000000
     37286      2830  MEOH      H1C            33.1106697442       13.2752367703      -21.6259284890  MEOH      2138            0.0000000000
     37287      2830  MEOH      LP1A           31.6646536019       12.0634075673      -22.4887075515  MEOH      2138            0.0000000000
     37288      2830  MEOH      LP1B           31.1131701573       12.4206031388      -22.5174553140  MEOH      2138            0.0000000000
     37289      2831  MEOH      C1             21.0728991035       26.5777794722        5.2249341945  MEOH      2139            0.0000000000
     37290      2831  MEOH      DC1            21.0924846996       26.5818718978        5.2163279886  MEOH      2139            0.0000000000
     37291      2831  MEOH      O1             22.4135175029       26.4778970441        4.7433032024  MEOH      2139            0.0000000000
     37292      2831  MEOH      DO1            22.4306609551       26.4801545125        4.7479101762  MEOH      2139            0.0000000000
     37293      2831  MEOH      HO1            22.9765576720       26.8912197148        5.4163931956  MEOH      2139            0.0000000000
     37294      2831  MEOH      HO2            22.5347949768       25.5478573878        4.4958804628  MEOH      2139            0.0000000000
     37295      2831  MEOH      H1A            20.3583479401       26.1845799022        4.4705259939  MEOH      2139            0.0000000000
     37296      2831  MEOH      H1B            20.8273044295       27.6439693736        5.4179195605  MEOH      2139            0.0000000000
     37297      2831  MEOH      H1C            20.9464798248       25.9909000016        6.1597666144  MEOH      2139            0.0000000000
     37298      2831  MEOH      LP1A           22.5566194976       26.1765528337        4.8491969509  MEOH      2139            0.0000000000
     37299      2831  MEOH      LP1B           22.4913916320       26.7571629835        4.5472262912  MEOH      2139            0.0000000000
     37300      2832  MEOH      C1              6.3101655328       24.8272978680       17.7811495359  MEOH      2140            0.0000000000
     37301      2832  MEOH      DC1             6.3133353865       24.8402351104       17.7895934606  MEOH      2140            0.0000000000
     37302      2832  MEOH      O1              6.9057639501       26.0367689224       18.2623955995  MEOH      2140            0.0000000000
     37303      2832  MEOH      DO1             6.9160156642       26.0394146519       18.2679783786  MEOH      2140            0.0000000000
     37304      2832  MEOH      HO1             6.2725938453       26.7534667839       18.1001002049  MEOH      2140            0.0000000000
     37305      2832  MEOH      HO2             7.2188603295       25.8468652285       19.1606200949  MEOH      2140            0.0000000000
     37306      2832  MEOH      H1A             7.0274707958       23.9819572316       17.8532145758  MEOH      2140            0.0000000000
     37307      2832  MEOH      H1B             6.0431726069       24.9267037653       16.7072993388  MEOH      2140            0.0000000000
     37308      2832  MEOH      H1C             5.4003501046       24.5787096672       18.3683128803  MEOH      2140            0.0000000000
     37309      2832  MEOH      LP1A            6.8260331379       26.0833849180       18.5999899515  MEOH      2140            0.0000000000
     37310      2832  MEOH      LP1B            7.0944364361       26.1865644086       18.0084979718  MEOH      2140            0.0000000000
     37311      2833  MEOH      C1            -11.1792134215       14.3987488875       18.7062460971  MEOH      2141            0.0000000000
     37312      2833  MEOH      DC1           -11.1663933672       14.4022294888       18.7107088558  MEOH      2141            0.0000000000
     37313      2833  MEOH      O1            -10.3905945746       14.0891340600       17.5509480111  MEOH      2141            0.0000000000
     37314      2833  MEOH      DO1           -10.3806423409       14.1003391222       17.5484638162  MEOH      2141            0.0000000000
     37315      2833  MEOH      HO1            -9.4866791378       13.9038907500       17.8501499481  MEOH      2141            0.0000000000
     37316      2833  MEOH      HO2           -10.8800462189       13.3868882485       17.0946718789  MEOH      2141            0.0000000000
     37317      2833  MEOH      H1A           -12.2292873115       14.5966869985       18.4021304419  MEOH      2141            0.0000000000
     37318      2833  MEOH      H1B           -10.7773404116       15.3020614794       19.2130453135  MEOH      2141            0.0000000000
     37319      2833  MEOH      H1C           -11.1814805303       13.5412138938       19.4126097391  MEOH      2141            0.0000000000
     37320      2833  MEOH      LP1A          -10.4055104657       13.7458588922       17.4843171220  MEOH      2141            0.0000000000
     37321      2833  MEOH      LP1B          -10.2530982020       14.3821752051       17.4178253804  MEOH      2141            0.0000000000
     37322      2834  MEOH      C1             36.6533317630      -12.2356560768       21.9316263216  MEOH      2142            0.0000000000
     37323      2834  MEOH      DC1            36.6374584047      -12.2378053268       21.9178698400  MEOH      2142            0.0000000000
     37324      2834  MEOH      O1             35.8388649414      -11.2064813133       22.5138738123  MEOH      2142            0.0000000000
     37325      2834  MEOH      DO1            35.8268091938      -11.2044265780       22.4960533447  MEOH      2142            0.0000000000
     37326      2834  MEOH      HO1            36.2132779640      -10.3453419273       22.2706581723  MEOH      2142            0.0000000000
     37327      2834  MEOH      HO2            35.7725080170      -11.4351657088       23.4541930165  MEOH      2142            0.0000000000
     37328      2834  MEOH      H1A            37.3174001772      -12.6855765015       22.7003302654  MEOH      2142            0.0000000000
     37329      2834  MEOH      H1B            37.2966316856      -11.8161307528       21.1288282696  MEOH      2142            0.0000000000
     37330      2834  MEOH      H1C            36.0078190695      -13.0243556417       21.4893737238  MEOH      2142            0.0000000000
     37331      2834  MEOH      LP1A           35.5804891856      -11.1197239781       22.2942943652  MEOH      2142            0.0000000000
     37332      2834  MEOH      LP1B           35.9545963238      -11.1296327017       22.8351222178  MEOH      2142            0.0000000000
     37333      2835  MEOH      C1            -28.9219638866       16.0264176114      -10.6079723691  MEOH      2143            0.0000000000
     37334      2835  MEOH      DC1           -28.9191455761       16.0280980647      -10.6044098162  MEOH      2143            0.0000000000
     37335      2835  MEOH      O1            -30.1808240334       16.6977659889      -10.5087778452  MEOH      2143            0.0000000000
     37336      2835  MEOH      DO1           -30.1814061937       16.6971907200      -10.4998839131  MEOH      2143            0.0000000000
     37337      2835  MEOH      HO1           -30.1510110929       17.2735448035       -9.7287201901  MEOH      2143            0.0000000000
     37338      2835  MEOH      HO2           -30.3404254164       17.0830340895      -11.3845608606  MEOH      2143            0.0000000000
     37339      2835  MEOH      H1A           -28.9609858921       15.2985427923      -11.4464212535  MEOH      2143            0.0000000000
     37340      2835  MEOH      H1B           -28.7107617036       15.4739160812       -9.6675167896  MEOH      2143            0.0000000000
     37341      2835  MEOH      H1C           -28.1080748671       16.7584018789      -10.7979847313  MEOH      2143            0.0000000000
     37342      2835  MEOH      LP1A          -30.1717838498       16.9966081793      -10.6907438319  MEOH      2143            0.0000000000
     37343      2835  MEOH      LP1B          -30.4042410618       16.5058919366      -10.3196504292  MEOH      2143            0.0000000000
     37344      2836  MEOH      C1             20.0233866287      -27.4066899597       35.8930591031  MEOH      2144            0.0000000000
     37345      2836  MEOH      DC1            20.0185940764      -27.4079424571       35.8904918103  MEOH      2144            0.0000000000
     37346      2836  MEOH      O1             18.8926768289      -27.8304355036       35.1284948706  MEOH      2144            0.0000000000
     37347      2836  MEOH      DO1            18.8907208671      -27.8274915933       35.1262958907  MEOH      2144            0.0000000000
     37348      2836  MEOH      HO1            19.1196389669      -27.7263156843       34.1911863556  MEOH      2144            0.0000000000
     37349      2836  MEOH      HO2            18.6412666884      -28.7013937707       35.4736392437  MEOH      2144            0.0000000000
     37350      2836  MEOH      H1A            19.7741553361      -27.4308321111       36.9754739595  MEOH      2144            0.0000000000
     37351      2836  MEOH      H1B            20.3033865128      -26.3646765865       35.6282399275  MEOH      2144            0.0000000000
     37352      2836  MEOH      H1C            20.8843356431      -28.0839664916       35.7076290790  MEOH      2144            0.0000000000
     37353      2836  MEOH      LP1A           18.9136910721      -28.1737892211       35.0639454610  MEOH      2144            0.0000000000
     37354      2836  MEOH      LP1B           18.6765789927      -27.5604279482       35.0746650909  MEOH      2144            0.0000000000
     37355      2837  MEOH      C1             32.1251458526        6.1065149212       -8.6386633898  MEOH      2145            0.0000000000
     37356      2837  MEOH      DC1            32.1289173307        6.1053831246       -8.6434934031  MEOH      2145            0.0000000000
     37357      2837  MEOH      O1             31.8820980881        7.4340132770       -9.1125707861  MEOH      2145            0.0000000000
     37358      2837  MEOH      DO1            31.8835777691        7.4285105678       -9.1214564509  MEOH      2145            0.0000000000
     37359      2837  MEOH      HO1            31.4388496800        7.9236856229       -8.4021822711  MEOH      2145            0.0000000000
     37360      2837  MEOH      HO2            32.7316315003        7.7511423439       -9.4569864325  MEOH      2145            0.0000000000
     37361      2837  MEOH      H1A            32.5657776614        5.4912313182       -9.4520456482  MEOH      2145            0.0000000000
     37362      2837  MEOH      H1B            31.1740249960        5.6341999348       -8.3121535578  MEOH      2145            0.0000000000
     37363      2837  MEOH      H1C            32.8260893145        6.1282074798       -7.7769623418  MEOH      2145            0.0000000000
     37364      2837  MEOH      LP1A           32.1565023085        7.6389680551       -9.0404884528  MEOH      2145            0.0000000000
     37365      2837  MEOH      LP1B           31.5718964596        7.4485682397       -9.2740114956  MEOH      2145            0.0000000000
     37366      2838  MEOH      C1            -23.3290937793       -5.0375399520      -32.3261655274  MEOH      2146            0.0000000000
     37367      2838  MEOH      DC1           -23.3342079803       -5.0332684139      -32.3211720383  MEOH      2146            0.0000000000
     37368      2838  MEOH      O1            -24.1963994909       -4.2457186356      -31.5108820497  MEOH      2146            0.0000000000
     37369      2838  MEOH      DO1           -24.2053414584       -4.2360302659      -31.5034334208  MEOH      2146            0.0000000000
     37370      2838  MEOH      HO1           -24.0090615666       -3.3250205743      -31.7519620833  MEOH      2146            0.0000000000
     37371      2838  MEOH      HO2           -25.0835047557       -4.6237437897      -31.6159593163  MEOH      2146            0.0000000000
     37372      2838  MEOH      H1A           -23.3475079095       -6.0951311847      -31.9863380625  MEOH      2146            0.0000000000
     37373      2838  MEOH      H1B           -22.2867862947       -4.6604756646      -32.2504117753  MEOH      2146            0.0000000000
     37374      2838  MEOH      H1C           -23.6530450148       -4.9944121320      -33.3880113675  MEOH      2146            0.0000000000
     37375      2838  MEOH      LP1A          -24.5027966067       -4.1980574487      -31.6732064739  MEOH      2146            0.0000000000
     37376      2838  MEOH      LP1B          -24.0394733863       -4.1703243699      -31.2072541485  MEOH      2146            0.0000000000
     37377      2839  MEOH      C1            -22.2905377991      -19.5746036804       31.5958967786  MEOH      2147            0.0000000000
     37378      2839  MEOH      DC1           -22.2881378920      -19.5713744102       31.5958522853  MEOH      2147            0.0000000000
     37379      2839  MEOH      O1            -21.2420441726      -18.6245411850       31.4338292435  MEOH      2147            0.0000000000
     37380      2839  MEOH      DO1           -21.2497099649      -18.6174379720       31.4309907640  MEOH      2147            0.0000000000
     37381      2839  MEOH      HO1           -21.1529542695      -18.1343403305       32.2660948931  MEOH      2147            0.0000000000
     37382      2839  MEOH      HO2           -20.4854056369      -19.1307361859       31.0989191834  MEOH      2147            0.0000000000
     37383      2839  MEOH      H1A           -22.4103185975      -20.1541962261       30.6556595525  MEOH      2147            0.0000000000
     37384      2839  MEOH      H1B           -23.2454606485      -19.0572897611       31.8300541235  MEOH      2147            0.0000000000
     37385      2839  MEOH      H1C           -22.0464326297      -20.2980228287       32.4029893400  MEOH      2147            0.0000000000
     37386      2839  MEOH      LP1A          -20.9354511609      -18.7683795483       31.5222105222  MEOH      2147            0.0000000000
     37387      2839  MEOH      LP1B          -21.3707561389      -18.3246132072       31.3074313090  MEOH      2147            0.0000000000
     37388      2840  MEOH      C1            -21.9294564583        3.2768877704       13.1278423942  MEOH      2148            0.0000000000
     37389      2840  MEOH      DC1           -21.9561238772        3.2836032429       13.1278015192  MEOH      2148            0.0000000000
     37390      2840  MEOH      O1            -21.9292136855        4.4257119549       12.2763475032  MEOH      2148            0.0000000000
     37391      2840  MEOH      DO1           -21.9581263472        4.4240094452       12.2766786728  MEOH      2148            0.0000000000
     37392      2840  MEOH      HO1           -21.1850834613        4.9863967865       12.5461673116  MEOH      2148            0.0000000000
     37393      2840  MEOH      HO2           -21.9013040916        4.0606959457       11.3780800770  MEOH      2148            0.0000000000
     37394      2840  MEOH      H1A           -22.6960357244        2.5527699563       12.7780844482  MEOH      2148            0.0000000000
     37395      2840  MEOH      H1B           -22.1470525888        3.5601892770       14.1798467575  MEOH      2148            0.0000000000
     37396      2840  MEOH      H1C           -20.9510950907        2.7528570067       13.0776249151  MEOH      2148            0.0000000000
     37397      2840  MEOH      LP1A          -21.7381944653        4.3624229307       11.9899803317  MEOH      2148            0.0000000000
     37398      2840  MEOH      LP1B          -22.1294202208        4.6772776707       12.4146660987  MEOH      2148            0.0000000000
     37399      2841  MEOH      C1              0.9245190489      -29.4005951674       34.6481987418  MEOH      2149            0.0000000000
     37400      2841  MEOH      DC1             0.9089221758      -29.4173677146       34.6463658749  MEOH      2149            0.0000000000
     37401      2841  MEOH      O1             -0.3486581143      -28.7700443082       34.5013985943  MEOH      2149            0.0000000000
     37402      2841  MEOH      DO1            -0.3633748447      -28.7802010647       34.4978521872  MEOH      2149            0.0000000000
     37403      2841  MEOH      HO1            -0.3813424809      -28.4389142301       33.5902539271  MEOH      2149            0.0000000000
     37404      2841  MEOH      HO2            -1.0101868876      -29.3803860004       34.8630098509  MEOH      2149            0.0000000000
     37405      2841  MEOH      H1A             1.1445972160      -29.5392886833       35.7283148046  MEOH      2149            0.0000000000
     37406      2841  MEOH      H1B             1.7330268826      -28.7789463422       34.2075301338  MEOH      2149            0.0000000000
     37407      2841  MEOH      H1C             0.9197944481      -30.3780051864       34.1200242126  MEOH      2149            0.0000000000
     37408      2841  MEOH      LP1A           -0.5865564622      -29.0038943722       34.3954810621  MEOH      2149            0.0000000000
     37409      2841  MEOH      LP1B           -0.3267180813      -28.4331186718       34.5935926857  MEOH      2149            0.0000000000
     37410      2842  MEOH      C1              8.2606977851       -5.7992899919       15.9482002967  MEOH      2150            0.0000000000
     37411      2842  MEOH      DC1             8.2633927319       -5.7963172519       15.9340361652  MEOH      2150            0.0000000000
     37412      2842  MEOH      O1              8.7740666379       -5.3082873002       14.7180257177  MEOH      2150            0.0000000000
     37413      2842  MEOH      DO1             8.7795436143       -5.3074469158       14.7126112770  MEOH      2150            0.0000000000
     37414      2842  MEOH      HO1             8.3534170237       -4.4496686180       14.5545391395  MEOH      2150            0.0000000000
     37415      2842  MEOH      HO2             9.7391777515       -5.3911098526       14.7690253563  MEOH      2150            0.0000000000
     37416      2842  MEOH      H1A             8.6856506545       -6.8129707102       16.1100257016  MEOH      2150            0.0000000000
     37417      2842  MEOH      H1B             7.1524995710       -5.8762527846       15.9310408356  MEOH      2150            0.0000000000
     37418      2842  MEOH      H1C             8.5736143735       -5.1374021073       16.7838489291  MEOH      2150            0.0000000000
     37419      2842  MEOH      LP1A            9.0643529466       -5.1213985110       14.7755273648  MEOH      2150            0.0000000000
     37420      2842  MEOH      LP1B            8.5767939449       -5.4218340721       14.4521486498  MEOH      2150            0.0000000000
     37421      2843  MEOH      C1              3.3609758874        4.9816066315        7.0268122239  MEOH      2151            0.0000000000
     37422      2843  MEOH      DC1             3.3674605119        4.9796086368        7.0144078103  MEOH      2151            0.0000000000
     37423      2843  MEOH      O1              2.4141086098        5.0661012096        8.0887098006  MEOH      2151            0.0000000000
     37424      2843  MEOH      DO1             2.4235231068        5.0677103076        8.0822287307  MEOH      2151            0.0000000000
     37425      2843  MEOH      HO1             2.7110494122        4.4990806067        8.8175539511  MEOH      2151            0.0000000000
     37426      2843  MEOH      HO2             2.2388086413        6.0094969824        8.2307461963  MEOH      2151            0.0000000000
     37427      2843  MEOH      H1A             2.9459793314        5.4963263632        6.1339726771  MEOH      2151            0.0000000000
     37428      2843  MEOH      H1B             3.5663465809        3.9193399979        6.7743573187  MEOH      2151            0.0000000000
     37429      2843  MEOH      H1C             4.3057999448        5.4748486053        7.3404056812  MEOH      2151            0.0000000000
     37430      2843  MEOH      LP1A            2.4981678154        5.3294499935        8.3033757456  MEOH      2151            0.0000000000
     37431      2843  MEOH      LP1B            2.1646897966        4.8242649104        8.0462190958  MEOH      2151            0.0000000000
     37432      2844  MEOH      C1              4.6552712102       30.6368350734      -14.4445173847  MEOH      2152            0.0000000000
     37433      2844  MEOH      DC1             4.6592441187       30.6591560387      -14.4591387014  MEOH      2152            0.0000000000
     37434      2844  MEOH      O1              4.2433842004       30.4189337392      -15.7929639310  MEOH      2152            0.0000000000
     37435      2844  MEOH      DO1             4.2456600237       30.4315336935      -15.8131577325  MEOH      2152            0.0000000000
     37436      2844  MEOH      HO1             3.4495046252       29.8629989890      -15.7530668841  MEOH      2152            0.0000000000
     37437      2844  MEOH      HO2             4.2817701980       31.2749748928      -16.2475187226  MEOH      2152            0.0000000000
     37438      2844  MEOH      H1A             5.6679189410       31.0929517835      -14.4158273127  MEOH      2152            0.0000000000
     37439      2844  MEOH      H1B             4.6741654680       29.6643471920      -13.9076455848  MEOH      2152            0.0000000000
     37440      2844  MEOH      H1C             3.9352637531       31.3151038490      -13.9386896172  MEOH      2152            0.0000000000
     37441      2844  MEOH      LP1A            4.0252408514       30.6732725095      -15.8940840044  MEOH      2152            0.0000000000
     37442      2844  MEOH      LP1B            4.4012250232       30.1343715294      -15.9218461384  MEOH      2152            0.0000000000
     37443      2845  MEOH      C1            -25.8607874470      -36.8364854470      -12.7956184848  MEOH      2153            0.0000000000
     37444      2845  MEOH      DC1           -25.8712323090      -36.8297665616      -12.7940820415  MEOH      2153            0.0000000000
     37445      2845  MEOH      O1            -27.2637411465      -37.0520590206      -12.6666141765  MEOH      2153            0.0000000000
     37446      2845  MEOH      DO1           -27.2734622080      -37.0475153959      -12.6509024820  MEOH      2153            0.0000000000
     37447      2845  MEOH      HO1           -27.4768181160      -37.0059940214      -11.7214283629  MEOH      2153            0.0000000000
     37448      2845  MEOH      HO2           -27.6944974440      -36.4803807632      -13.3212384826  MEOH      2153            0.0000000000
     37449      2845  MEOH      H1A           -25.5392137952      -37.0182221496      -13.8434176821  MEOH      2153            0.0000000000
     37450      2845  MEOH      H1B           -25.3120571804      -37.5414065294      -12.1350866065  MEOH      2153            0.0000000000
     37451      2845  MEOH      H1C           -25.6064463122      -35.7951689352      -12.5035713809  MEOH      2153            0.0000000000
     37452      2845  MEOH      LP1A          -27.4342522981      -36.7472246203      -12.6890180941  MEOH      2153            0.0000000000
     37453      2845  MEOH      LP1B          -27.3297722776      -37.3942165986      -12.6339326596  MEOH      2153            0.0000000000
     37454      2846  MEOH      C1            -18.4567399368      -27.6545098074       35.7011328972  MEOH      2154            0.0000000000
     37455      2846  MEOH      DC1           -18.4541279121      -27.6643167664       35.7030789613  MEOH      2154            0.0000000000
     37456      2846  MEOH      O1            -17.1359799486      -27.7775841713       35.1818203654  MEOH      2154            0.0000000000
     37457      2846  MEOH      DO1           -17.1347649046      -27.7819299046       35.1815512729  MEOH      2154            0.0000000000
     37458      2846  MEOH      HO1           -16.8394841430      -28.6876741073       35.3390671353  MEOH      2154            0.0000000000
     37459      2846  MEOH      HO2           -17.1701400618      -27.4168437879       34.2820429138  MEOH      2154            0.0000000000
     37460      2846  MEOH      H1A           -18.7625625123      -26.5867988400       35.7291836089  MEOH      2154            0.0000000000
     37461      2846  MEOH      H1B           -18.4815242311      -28.0863543558       36.7244691210  MEOH      2154            0.0000000000
     37462      2846  MEOH      H1C           -19.1751917556      -28.2118737904       35.0627808192  MEOH      2154            0.0000000000
     37463      2846  MEOH      LP1A          -17.1480829367      -27.8728167369       34.8452430695  MEOH      2154            0.0000000000
     37464      2846  MEOH      LP1B          -16.9021722346      -27.6920432670       35.4278218015  MEOH      2154            0.0000000000
     37465      2847  MEOH      C1             14.5108044766      -16.0097068363      -29.7938065408  MEOH      2155            0.0000000000
     37466      2847  MEOH      DC1            14.5245691865      -16.0389327666      -29.8051298681  MEOH      2155            0.0000000000
     37467      2847  MEOH      O1             15.2788570457      -17.1551624441      -29.4009231080  MEOH      2155            0.0000000000
     37468      2847  MEOH      DO1            15.2906180685      -17.1774638268      -29.4077942093  MEOH      2155            0.0000000000
     37469      2847  MEOH      HO1            15.0882733938      -17.8614079295      -30.0379436627  MEOH      2155            0.0000000000
     37470      2847  MEOH      HO2            16.1841489279      -16.8414390742      -29.2495155283  MEOH      2155            0.0000000000
     37471      2847  MEOH      H1A            14.6808293269      -15.1698464047      -29.0866665219  MEOH      2155            0.0000000000
     37472      2847  MEOH      H1B            13.4239401791      -16.2398549461      -29.8026860873  MEOH      2155            0.0000000000
     37473      2847  MEOH      H1C            14.8018118485      -15.6690740393      -30.8104702064  MEOH      2155            0.0000000000
     37474      2847  MEOH      LP1A           15.5944152207      -17.1452537333      -29.5520020797  MEOH      2155            0.0000000000
     37475      2847  MEOH      LP1B           15.0958003179      -17.3504067900      -29.1753795871  MEOH      2155            0.0000000000
     37476      2848  MEOH      C1             15.8400649920      -13.5854938293        7.5957886817  MEOH      2156            0.0000000000
     37477      2848  MEOH      DC1            15.8529117209      -13.5731242362        7.6010196499  MEOH      2156            0.0000000000
     37478      2848  MEOH      O1             16.8455496780      -12.7446016780        8.1730500222  MEOH      2156            0.0000000000
     37479      2848  MEOH      DO1            16.8639466613      -12.7148374948        8.1628596503  MEOH      2156            0.0000000000
     37480      2848  MEOH      HO1            16.9932048424      -13.1225471870        9.0541034516  MEOH      2156            0.0000000000
     37481      2848  MEOH      HO2            17.5595809128      -12.7094846165        7.5174387138  MEOH      2156            0.0000000000
     37482      2848  MEOH      H1A            15.5199617557      -13.1946293928        6.6063040118  MEOH      2156            0.0000000000
     37483      2848  MEOH      H1B            14.9576614682      -13.6422066742        8.2684465999  MEOH      2156            0.0000000000
     37484      2848  MEOH      H1C            16.2467639772      -14.6093473296        7.4521191120  MEOH      2156            0.0000000000
     37485      2848  MEOH      LP1A           17.1637942250      -12.8665952228        8.0934385697  MEOH      2156            0.0000000000
     37486      2848  MEOH      LP1B           16.6956092150      -12.4757348604        8.3395687657  MEOH      2156            0.0000000000
     37487      2849  MEOH      C1             27.9313496791       -2.8280059841       11.3841989722  MEOH      2157            0.0000000000
     37488      2849  MEOH      DC1            27.9284239501       -2.8245558850       11.3621175612  MEOH      2157            0.0000000000
     37489      2849  MEOH      O1             28.1934021481       -1.4408680876       11.1628520700  MEOH      2157            0.0000000000
     37490      2849  MEOH      DO1            28.1839923626       -1.4385861380       11.1492881917  MEOH      2157            0.0000000000
     37491      2849  MEOH      HO1            28.2637645665       -1.0292000334       12.0383396734  MEOH      2157            0.0000000000
     37492      2849  MEOH      HO2            28.9417477604       -1.4067181208       10.5466438062  MEOH      2157            0.0000000000
     37493      2849  MEOH      H1A            27.8094037483       -3.3539628048       10.4132099845  MEOH      2157            0.0000000000
     37494      2849  MEOH      H1B            26.9927352978       -2.9380010333       11.9683437599  MEOH      2157            0.0000000000
     37495      2849  MEOH      H1C            28.7657136637       -3.2903501035       11.9537563939  MEOH      2157            0.0000000000
     37496      2849  MEOH      LP1A           28.5384254876       -1.3861934559       11.1411822782  MEOH      2157            0.0000000000
     37497      2849  MEOH      LP1B           27.8920436112       -1.2648934817       11.1360944479  MEOH      2157            0.0000000000
     37498      2850  MEOH      C1            -34.7978078487       -8.3099508513      -25.4286956197  MEOH      2158            0.0000000000
     37499      2850  MEOH      DC1           -34.7950059891       -8.3190857084      -25.4393919063  MEOH      2158            0.0000000000
     37500      2850  MEOH      O1            -33.4638783247       -7.8174423701      -25.5637293695  MEOH      2158            0.0000000000
     37501      2850  MEOH      DO1           -33.4645163082       -7.8244752152      -25.5712869457  MEOH      2158            0.0000000000
     37502      2850  MEOH      HO1           -33.4479665989       -6.9099729475      -25.2214632975  MEOH      2158            0.0000000000
     37503      2850  MEOH      HO2           -32.8823388685       -8.4978218184      -25.1898367800  MEOH      2158            0.0000000000
     37504      2850  MEOH      H1A           -34.8813233979       -9.2989875668      -25.9278474310  MEOH      2158            0.0000000000
     37505      2850  MEOH      H1B           -35.5129526781       -7.6040583479      -25.9026203483  MEOH      2158            0.0000000000
     37506      2850  MEOH      H1C           -35.0559797969       -8.4229846996      -24.3540367927  MEOH      2158            0.0000000000
     37507      2850  MEOH      LP1A          -33.2779296608       -7.8954732583      -25.2776624632  MEOH      2158            0.0000000000
     37508      2850  MEOH      LP1B          -33.4230081519       -7.6668687671      -25.8770298947  MEOH      2158            0.0000000000
     37509      2851  MEOH      C1            -32.0520532865      -36.7890386870      -36.3766268003  MEOH      2159            0.0000000000
     37510      2851  MEOH      DC1           -32.0748036872      -36.7874220002      -36.3985885109  MEOH      2159            0.0000000000
     37511      2851  MEOH      O1            -32.4479086138      -35.4406618643      -36.1077019697  MEOH      2159            0.0000000000
     37512      2851  MEOH      DO1           -32.4745910953      -35.4479014630      -36.1467659589  MEOH      2159            0.0000000000
     37513      2851  MEOH      HO1           -32.0023854681      -34.8354691331      -36.7210133790  MEOH      2159            0.0000000000
     37514      2851  MEOH      HO2           -33.4055659050      -35.4409015546      -35.9534539354  MEOH      2159            0.0000000000
     37515      2851  MEOH      H1A           -32.0135288514      -37.3530064021      -35.4201868989  MEOH      2159            0.0000000000
     37516      2851  MEOH      H1B           -31.0617177682      -36.7771250399      -36.8800298459  MEOH      2159            0.0000000000
     37517      2851  MEOH      H1C           -32.7580192665      -37.3201725159      -37.0502957792  MEOH      2159            0.0000000000
     37518      2851  MEOH      LP1A          -32.7339733470      -35.3606986722      -36.2928312660  MEOH      2159            0.0000000000
     37519      2851  MEOH      LP1B          -32.2348500568      -35.2986841836      -35.8690633528  MEOH      2159            0.0000000000
     37520      2852  MEOH      C1             35.7841828749        8.3175934044      -25.7546760296  MEOH      2160            0.0000000000
     37521      2852  MEOH      DC1            35.7801716991        8.3096220435      -25.7540216908  MEOH      2160            0.0000000000
     37522      2852  MEOH      O1             35.9199820493        9.3900267113      -24.8206407759  MEOH      2160            0.0000000000
     37523      2852  MEOH      DO1            35.9129597881        9.3887769093      -24.8152432606  MEOH      2160            0.0000000000
     37524      2852  MEOH      HO1            36.7030967173        9.1776289302      -24.2891159889  MEOH      2160            0.0000000000
     37525      2852  MEOH      HO2            35.8642489244       10.2090458040      -25.3373626984  MEOH      2160            0.0000000000
     37526      2852  MEOH      H1A            34.8115298512        8.4017538751      -26.2849439920  MEOH      2160            0.0000000000
     37527      2852  MEOH      H1B            35.8248701444        7.3460006042      -25.2173930715  MEOH      2160            0.0000000000
     37528      2852  MEOH      H1C            36.6160567149        8.3609065676      -26.4898160736  MEOH      2160            0.0000000000
     37529      2852  MEOH      LP1A           36.1161124469        9.6449146690      -24.9587168279  MEOH      2160            0.0000000000
     37530      2852  MEOH      LP1B           35.7372886906        9.3198944018      -24.5304604942  MEOH      2160            0.0000000000
     37531      2853  MEOH      C1             13.1568039745       -2.7270160758       12.1534306987  MEOH      2161            0.0000000000
     37532      2853  MEOH      DC1            13.1466032359       -2.7319633792       12.1467941257  MEOH      2161            0.0000000000
     37533      2853  MEOH      O1             14.5607363874       -2.9215503443       12.0006364894  MEOH      2161            0.0000000000
     37534      2853  MEOH      DO1            14.5496869654       -2.9396239844       11.9960390332  MEOH      2161            0.0000000000
     37535      2853  MEOH      HO1            14.9738670736       -2.8459507475       12.8749978209  MEOH      2161            0.0000000000
     37536      2853  MEOH      HO2            14.6873899695       -3.6949836209       11.4290948576  MEOH      2161            0.0000000000
     37537      2853  MEOH      H1A            12.7119512858       -2.5635969251       11.1485818210  MEOH      2161            0.0000000000
     37538      2853  MEOH      H1B            12.9521087737       -1.8380380448       12.7875749530  MEOH      2161            0.0000000000
     37539      2853  MEOH      H1C            12.6985794976       -3.6204965719       12.6288714769  MEOH      2161            0.0000000000
     37540      2853  MEOH      LP1A           14.6382252223       -3.2616971073       12.0288439371  MEOH      2161            0.0000000000
     37541      2853  MEOH      LP1B           14.7175984462       -2.6155310718       11.9354713195  MEOH      2161            0.0000000000
     37542      2854  MEOH      C1             33.5253544248       -9.7607633911      -28.1826703702  MEOH      2162            0.0000000000
     37543      2854  MEOH      DC1            33.5236285748       -9.7505539490      -28.1818836944  MEOH      2162            0.0000000000
     37544      2854  MEOH      O1             32.2049624080      -10.2861397021      -28.2118973625  MEOH      2162            0.0000000000
     37545      2854  MEOH      DO1            32.2156339809      -10.2873760444      -28.2104656266  MEOH      2162            0.0000000000
     37546      2854  MEOH      HO1            31.9502386066      -10.4197843044      -29.1382638695  MEOH      2162            0.0000000000
     37547      2854  MEOH      HO2            32.2175291628      -11.0366298847      -27.5974817352  MEOH      2162            0.0000000000
     37548      2854  MEOH      H1A            33.8003508962       -9.5288416525      -27.1315232593  MEOH      2162            0.0000000000
     37549      2854  MEOH      H1B            33.6031599405       -8.8322103198      -28.7876963989  MEOH      2162            0.0000000000
     37550      2854  MEOH      H1C            34.2359169508      -10.5175935765      -28.5784354129  MEOH      2162            0.0000000000
     37551      2854  MEOH      LP1A           32.2148861988      -10.6357192681      -28.1979100314  MEOH      2162            0.0000000000
     37552      2854  MEOH      LP1B           31.9722765626      -10.0247932642      -28.2193362314  MEOH      2162            0.0000000000
     37553      2855  MEOH      C1             32.1354449944       20.1697809672       -7.4870827400  MEOH      2163            0.0000000000
     37554      2855  MEOH      DC1            32.1287545506       20.1694665891       -7.4811879829  MEOH      2163            0.0000000000
     37555      2855  MEOH      O1             30.9019142589       20.2628849070       -6.7650632443  MEOH      2163            0.0000000000
     37556      2855  MEOH      DO1            30.8962078411       20.2721838849       -6.7585272408  MEOH      2163            0.0000000000
     37557      2855  MEOH      HO1            30.7189074296       19.3854324890       -6.3942725289  MEOH      2163            0.0000000000
     37558      2855  MEOH      HO2            30.9927980565       21.0336041970       -6.1831423627  MEOH      2163            0.0000000000
     37559      2855  MEOH      H1A            32.3224164249       21.1174879945       -8.0359124723  MEOH      2163            0.0000000000
     37560      2855  MEOH      H1B            32.0962711754       19.3435570116       -8.2287972316  MEOH      2163            0.0000000000
     37561      2855  MEOH      H1C            32.9799513965       19.9820160750       -6.7900359097  MEOH      2163            0.0000000000
     37562      2855  MEOH      LP1A           30.9639802894       20.3568210201       -6.4336664813  MEOH      2163            0.0000000000
     37563      2855  MEOH      LP1B           30.6328637475       20.1956157830       -6.9785736357  MEOH      2163            0.0000000000
     37564      2856  MEOH      C1             16.6117566138        6.3086199417      -25.1392215084  MEOH      2164            0.0000000000
     37565      2856  MEOH      DC1            16.6317768672        6.3167181854      -25.1392875185  MEOH      2164            0.0000000000
     37566      2856  MEOH      O1             15.2439333737        6.2331650681      -24.7793133090  MEOH      2164            0.0000000000
     37567      2856  MEOH      DO1            15.2523212485        6.2635074946      -24.7919506852  MEOH      2164            0.0000000000
     37568      2856  MEOH      HO1            15.0584733524        5.3282475506      -24.4832915751  MEOH      2164            0.0000000000
     37569      2856  MEOH      HO2            15.1197934037        6.9415712955      -24.1284293820  MEOH      2164            0.0000000000
     37570      2856  MEOH      H1A            16.8333810759        7.3900460149      -25.2646059111  MEOH      2164            0.0000000000
     37571      2856  MEOH      H1B            16.7954936204        5.7754192671      -26.0964355669  MEOH      2164            0.0000000000
     37572      2856  MEOH      H1C            17.2533007594        5.8856697901      -24.3368155770  MEOH      2164            0.0000000000
     37573      2856  MEOH      LP1A           15.2040852902        6.3175102821      -24.4419736951  MEOH      2164            0.0000000000
     37574      2856  MEOH      LP1B           15.0512480598        6.1471368178      -25.0585470999  MEOH      2164            0.0000000000
     37575      2857  MEOH      C1            -28.2790657074       32.0699799888      -30.1109707846  MEOH      2165            0.0000000000
     37576      2857  MEOH      DC1           -28.2900454867       32.0650198917      -30.1074773523  MEOH      2165            0.0000000000
     37577      2857  MEOH      O1            -29.4577276593       31.7969153323      -29.3492207453  MEOH      2165            0.0000000000
     37578      2857  MEOH      DO1           -29.4607003837       31.7819718326      -29.3464061382  MEOH      2165            0.0000000000
     37579      2857  MEOH      HO1           -30.2062007497       31.7516155776      -29.9645547727  MEOH      2165            0.0000000000
     37580      2857  MEOH      HO2           -29.2324263666       31.0720654689      -28.7452902826  MEOH      2165            0.0000000000
     37581      2857  MEOH      H1A           -27.4751589416       32.4500300396      -29.4449250870  MEOH      2165            0.0000000000
     37582      2857  MEOH      H1B           -28.4909471263       32.8328589292      -30.8903570730  MEOH      2165            0.0000000000
     37583      2857  MEOH      H1C           -27.9200921732       31.1491745798      -30.6184906387  MEOH      2165            0.0000000000
     37584      2857  MEOH      LP1A          -29.5028253260       31.4512176695      -29.3182477501  MEOH      2165            0.0000000000
     37585      2857  MEOH      LP1B          -29.6037501979       32.0967424833      -29.2430082331  MEOH      2165            0.0000000000
     37586      2858  MEOH      C1              8.0529620193        2.3252519016       24.4997910135  MEOH      2166            0.0000000000
     37587      2858  MEOH      DC1             8.0713369824        2.3255465973       24.5132539950  MEOH      2166            0.0000000000
     37588      2858  MEOH      O1              8.0661142814        1.1313167341       25.2831731420  MEOH      2166            0.0000000000
     37589      2858  MEOH      DO1             8.0673826376        1.1289603552       25.2970021091  MEOH      2166            0.0000000000
     37590      2858  MEOH      HO1             8.8873854027        0.6598791505       25.0730295003  MEOH      2166            0.0000000000
     37591      2858  MEOH      HO2             7.8406883515        1.3918272184       26.1899352048  MEOH      2166            0.0000000000
     37592      2858  MEOH      H1A             7.0360259549        2.7715734591       24.5307605170  MEOH      2166            0.0000000000
     37593      2858  MEOH      H1B             8.3041140034        2.0969181698       23.4419122925  MEOH      2166            0.0000000000
     37594      2858  MEOH      H1C             8.7874840749        3.0587742389       24.8956992484  MEOH      2166            0.0000000000
     37595      2858  MEOH      LP1A            8.2162540260        1.1932194637       25.5932152506  MEOH      2166            0.0000000000
     37596      2858  MEOH      LP1B            7.9080388059        0.8721236350       25.1090149340  MEOH      2166            0.0000000000
     37597      2859  MEOH      C1            -11.7816281513      -16.9520800642       18.7599944022  MEOH      2167            0.0000000000
     37598      2859  MEOH      DC1           -11.7743843438      -16.9627900778       18.7647212573  MEOH      2167            0.0000000000
     37599      2859  MEOH      O1            -10.5449618171      -17.6581485201       18.6070870566  MEOH      2167            0.0000000000
     37600      2859  MEOH      DO1           -10.5277093597      -17.6583947897       18.6240881856  MEOH      2167            0.0000000000
     37601      2859  MEOH      HO1           -10.1102017127      -17.2733215086       17.8300466311  MEOH      2167            0.0000000000
     37602      2859  MEOH      HO2           -10.1195641153      -17.6768396200       19.4786301931  MEOH      2167            0.0000000000
     37603      2859  MEOH      H1A           -12.4312624114      -17.4772775150       19.4924314080  MEOH      2167            0.0000000000
     37604      2859  MEOH      H1B           -12.3278430981      -16.9153118198       17.7932377996  MEOH      2167            0.0000000000
     37605      2859  MEOH      H1C           -11.5912491975      -15.9169688943       19.1158338603  MEOH      2167            0.0000000000
     37606      2859  MEOH      LP1A          -10.2932001901      -17.5000065710       18.7917684231  MEOH      2167            0.0000000000
     37607      2859  MEOH      LP1B          -10.5924966322      -17.9406898818       18.4060626296  MEOH      2167            0.0000000000
     37608      2860  MEOH      C1            -28.5903091774      -25.7902190457      -23.4163788876  MEOH      2168            0.0000000000
     37609      2860  MEOH      DC1           -28.5708954291      -25.7808472017      -23.4322737203  MEOH      2168            0.0000000000
     37610      2860  MEOH      O1            -27.4745606500      -25.1998742693      -24.0698878968  MEOH      2168            0.0000000000
     37611      2860  MEOH      DO1           -27.4634194226      -25.1967317997      -24.0846557162  MEOH      2168            0.0000000000
     37612      2860  MEOH      HO1           -26.8222774805      -25.0246255703      -23.3736734464  MEOH      2168            0.0000000000
     37613      2860  MEOH      HO2           -27.2634775459      -25.7745299857      -24.8222938582  MEOH      2168            0.0000000000
     37614      2860  MEOH      H1A           -29.4492253477      -25.8722745239      -24.1162723870  MEOH      2168            0.0000000000
     37615      2860  MEOH      H1B           -28.8806027258      -25.1520524097      -22.5545239111  MEOH      2168            0.0000000000
     37616      2860  MEOH      H1C           -28.3471849342      -26.8055961267      -23.0366145028  MEOH      2168            0.0000000000
     37617      2860  MEOH      LP1A          -27.2530464479      -25.4488133527      -24.1769429808  MEOH      2168            0.0000000000
     37618      2860  MEOH      LP1B          -27.5136160902      -24.8523060982      -24.0829660865  MEOH      2168            0.0000000000
     37619      2861  MEOH      C1            -25.5016021549      -22.2106624586       35.5766611688  MEOH      2169            0.0000000000
     37620      2861  MEOH      DC1           -25.5078976075      -22.2156875630       35.5839441425  MEOH      2169            0.0000000000
     37621      2861  MEOH      O1            -26.7848895037      -21.9147452789       35.0295157226  MEOH      2169            0.0000000000
     37622      2861  MEOH      DO1           -26.7870242662      -21.9135927440       35.0329122271  MEOH      2169            0.0000000000
     37623      2861  MEOH      HO1           -27.4547505783      -22.3147221156       35.6058877125  MEOH      2169            0.0000000000
     37624      2861  MEOH      HO2           -26.7798562716      -20.9600101312       34.8581813566  MEOH      2169            0.0000000000
     37625      2861  MEOH      H1A           -24.7190809328      -21.8724040886       34.8642267415  MEOH      2169            0.0000000000
     37626      2861  MEOH      H1B           -25.3792491525      -23.3078619332       35.7011764518  MEOH      2169            0.0000000000
     37627      2861  MEOH      H1C           -25.3619503086      -21.6991534632       36.5529689644  MEOH      2169            0.0000000000
     37628      2861  MEOH      LP1A          -26.9021789249      -21.6106499193       35.1570665122  MEOH      2169            0.0000000000
     37629      2861  MEOH      LP1B          -26.8780491262      -22.1634157077       34.8015150590  MEOH      2169            0.0000000000
     37630      2862  MEOH      C1            -15.2034313682      -25.4248901070       32.9852252387  MEOH      2170            0.0000000000
     37631      2862  MEOH      DC1           -15.1767583843      -25.4409533182       32.9788733165  MEOH      2170            0.0000000000
     37632      2862  MEOH      O1            -15.9624350477      -25.3922010900       31.7766168384  MEOH      2170            0.0000000000
     37633      2862  MEOH      DO1           -15.9484238930      -25.4046367928       31.7785787867  MEOH      2170            0.0000000000
     37634      2862  MEOH      HO1           -16.4169731315      -26.2420192676       31.6665977703  MEOH      2170            0.0000000000
     37635      2862  MEOH      HO2           -16.4994541058      -24.5867326049       31.8376991708  MEOH      2170            0.0000000000
     37636      2862  MEOH      H1A           -14.7099486741      -24.4387540615       33.1206192212  MEOH      2170            0.0000000000
     37637      2862  MEOH      H1B           -14.4327829818      -26.2234946086       32.9337187655  MEOH      2170            0.0000000000
     37638      2862  MEOH      H1C           -15.8722470783      -25.5956042603       33.8557786400  MEOH      2170            0.0000000000
     37639      2862  MEOH      LP1A          -16.2831152737      -25.2671114140       31.8399947963  MEOH      2170            0.0000000000
     37640      2862  MEOH      LP1B          -15.7654573585      -25.5010827818       31.5085784696  MEOH      2170            0.0000000000
     37641      2863  MEOH      C1             36.9227634145      -10.2672766661       33.4796627271  MEOH      2171            0.0000000000
     37642      2863  MEOH      DC1            36.9208089941      -10.2712961636       33.4899055300  MEOH      2171            0.0000000000
     37643      2863  MEOH      O1             35.6693955187       -9.6285265797       33.2233294143  MEOH      2171            0.0000000000
     37644      2863  MEOH      DO1            35.6661222050       -9.6384300030       33.2262204165  MEOH      2171            0.0000000000
     37645      2863  MEOH      HO1            35.1769937609       -9.5552374217       34.0558371975  MEOH      2171            0.0000000000
     37646      2863  MEOH      HO2            35.8799920255       -8.8286092408       32.7166921058  MEOH      2171            0.0000000000
     37647      2863  MEOH      H1A            37.4893973872      -10.3679958093       32.5293456258  MEOH      2171            0.0000000000
     37648      2863  MEOH      H1B            36.7598440239      -11.2830717884       33.8991130102  MEOH      2171            0.0000000000
     37649      2863  MEOH      H1C            37.5251666155       -9.6553889739       34.1846626121  MEOH      2171            0.0000000000
     37650      2863  MEOH      LP1A           35.7038342292       -9.2814174448       33.2521256594  MEOH      2171            0.0000000000
     37651      2863  MEOH      LP1B           35.4278069586       -9.8678434861       33.1404898953  MEOH      2171            0.0000000000
     37652      2864  MEOH      C1             29.3234161855       -6.1693959911       -2.5609255068  MEOH      2172            0.0000000000
     37653      2864  MEOH      DC1            29.3153809930       -6.1715065948       -2.5595599221  MEOH      2172            0.0000000000
     37654      2864  MEOH      O1             29.3272406079       -6.7523720709       -1.2595235105  MEOH      2172            0.0000000000
     37655      2864  MEOH      DO1            29.3146330773       -6.7499248250       -1.2549082307  MEOH      2172            0.0000000000
     37656      2864  MEOH      HO1            30.2335820930       -6.6846109027       -0.9206230271  MEOH      2172            0.0000000000
     37657      2864  MEOH      HO2            28.5814678992       -6.3613750468       -0.7780212841  MEOH      2172            0.0000000000
     37658      2864  MEOH      H1A            28.3395852061       -6.3513314051       -3.0439339035  MEOH      2172            0.0000000000
     37659      2864  MEOH      H1B            30.1192020771       -6.6364986461       -3.1796830725  MEOH      2172            0.0000000000
     37660      2864  MEOH      H1C            29.5048763244       -5.0754835638       -2.4920138284  MEOH      2172            0.0000000000
     37661      2864  MEOH      LP1A           29.2509097723       -6.5095069144       -1.0193358354  MEOH      2172            0.0000000000
     37662      2864  MEOH      LP1B           29.3930047784       -7.0953890038       -1.2822051686  MEOH      2172            0.0000000000
     37663      2865  MEOH      C1            -13.5615698315      -31.9811140513       15.7356904522  MEOH      2173            0.0000000000
     37664      2865  MEOH      DC1           -13.5763614557      -31.9861721565       15.7292520273  MEOH      2173            0.0000000000
     37665      2865  MEOH      O1            -14.3181052584      -33.1419736686       15.3944266856  MEOH      2173            0.0000000000
     37666      2865  MEOH      DO1           -14.3288830927      -33.1382373161       15.4017024143  MEOH      2173            0.0000000000
     37667      2865  MEOH      HO1           -14.0062809133      -33.8786942619       15.9429778188  MEOH      2173            0.0000000000
     37668      2865  MEOH      HO2           -15.2481302116      -32.8670894967       15.3746206620  MEOH      2173            0.0000000000
     37669      2865  MEOH      H1A           -13.7647691197      -31.1654855589       15.0092049316  MEOH      2173            0.0000000000
     37670      2865  MEOH      H1B           -12.4746016579      -32.2030535048       15.6759906218  MEOH      2173            0.0000000000
     37671      2865  MEOH      H1C           -13.8085300086      -31.6376342740       16.7629943575  MEOH      2173            0.0000000000
     37672      2865  MEOH      LP1A          -14.6066179373      -33.1591331530       15.5918247256  MEOH      2173            0.0000000000
     37673      2865  MEOH      LP1B          -14.1624020628      -33.3134642190       15.1320386028  MEOH      2173            0.0000000000
     37674      2866  MEOH      C1            -23.8812944187       25.9764855343      -20.2060310661  MEOH      2174            0.0000000000
     37675      2866  MEOH      DC1           -23.8775228042       25.9825280229      -20.2041160699  MEOH      2174            0.0000000000
     37676      2866  MEOH      O1            -24.5581936974       27.0758084525      -20.8202161286  MEOH      2174            0.0000000000
     37677      2866  MEOH      DO1           -24.5572249375       27.0773072389      -20.8162736539  MEOH      2174            0.0000000000
     37678      2866  MEOH      HO1           -25.2091998520       27.4217237483      -20.1897927829  MEOH      2174            0.0000000000
     37679      2866  MEOH      HO2           -23.8679957856       27.6502657766      -21.1869934812  MEOH      2174            0.0000000000
     37680      2866  MEOH      H1A           -23.1959399105       25.5063592783      -20.9433176470  MEOH      2174            0.0000000000
     37681      2866  MEOH      H1B           -24.6142177917       25.2137718240      -19.8663074646  MEOH      2174            0.0000000000
     37682      2866  MEOH      H1C           -23.2883917637       26.3335308231      -19.3369475801  MEOH      2174            0.0000000000
     37683      2866  MEOH      LP1A          -24.3856501739       27.3735109908      -20.7561698079  MEOH      2174            0.0000000000
     37684      2866  MEOH      LP1B          -24.8377705479       26.9607977011      -20.9965944486  MEOH      2174            0.0000000000
     37685      2867  MEOH      C1             -4.3771530034        6.6263676717        5.9582450670  MEOH      2175            0.0000000000
     37686      2867  MEOH      DC1            -4.3671092475        6.6254100154        5.9519596857  MEOH      2175            0.0000000000
     37687      2867  MEOH      O1             -5.2840638325        5.7244427897        6.5865261443  MEOH      2175            0.0000000000
     37688      2867  MEOH      DO1            -5.2752432134        5.7266302500        6.5803298685  MEOH      2175            0.0000000000
     37689      2867  MEOH      HO1            -6.1380788272        5.7886531724        6.1310753606  MEOH      2175            0.0000000000
     37690      2867  MEOH      HO2            -4.8216657779        4.8735428303        6.6418189833  MEOH      2175            0.0000000000
     37691      2867  MEOH      H1A            -3.4309333739        6.6459484305        6.5401436904  MEOH      2175            0.0000000000
     37692      2867  MEOH      H1B            -4.8064526126        7.6510346030        5.9492714449  MEOH      2175            0.0000000000
     37693      2867  MEOH      H1C            -4.1627511860        6.2975369595        4.9189071896  MEOH      2175            0.0000000000
     37694      2867  MEOH      LP1A           -5.2633876579        5.4093534553        6.4355585744  MEOH      2175            0.0000000000
     37695      2867  MEOH      LP1B           -5.4488655470        5.8848216127        6.8503803238  MEOH      2175            0.0000000000
     37696      2868  MEOH      C1            -36.3404732959       19.3568786764       11.5071282652  MEOH      2176            0.0000000000
     37697      2868  MEOH      DC1           -36.3604828924       19.3882710392       11.5230170002  MEOH      2176            0.0000000000
     37698      2868  MEOH      O1            -35.8412093047       18.4424314486       10.5547267607  MEOH      2176            0.0000000000
     37699      2868  MEOH      DO1           -35.8387698988       18.4797397735       10.5665902165  MEOH      2176            0.0000000000
     37700      2868  MEOH      HO1           -36.0624852765       17.5441791687       10.8464111550  MEOH      2176            0.0000000000
     37701      2868  MEOH      HO2           -36.2007216476       18.7463377840        9.7066160279  MEOH      2176            0.0000000000
     37702      2868  MEOH      H1A           -36.0188672635       20.3814419264       11.2222410788  MEOH      2176            0.0000000000
     37703      2868  MEOH      H1B           -35.9625262226       19.1129557698       12.5229917533  MEOH      2176            0.0000000000
     37704      2868  MEOH      H1C           -37.4464396615       19.2600568116       11.4648798975  MEOH      2176            0.0000000000
     37705      2868  MEOH      LP1A          -36.0809226989       18.3857312103       10.3060853087  MEOH      2176            0.0000000000
     37706      2868  MEOH      LP1B          -35.5127024200       18.3527608145       10.6356118896  MEOH      2176            0.0000000000
     37707      2869  MEOH      C1              1.9323021939        2.0855950124        8.9669316931  MEOH      2177            0.0000000000
     37708      2869  MEOH      DC1             1.9447179223        2.0920557817        8.9627454956  MEOH      2177            0.0000000000
     37709      2869  MEOH      O1              0.6520240275        2.5968217886        9.3245118654  MEOH      2177            0.0000000000
     37710      2869  MEOH      DO1             0.6637337946        2.5978400318        9.3306259520  MEOH      2177            0.0000000000
     37711      2869  MEOH      HO1             0.3230785047        2.1012153145       10.0907161893  MEOH      2177            0.0000000000
     37712      2869  MEOH      HO2             0.7277651575        3.5638561291        9.3217071642  MEOH      2177            0.0000000000
     37713      2869  MEOH      H1A             2.2302002509        2.4731588209        7.9692483556  MEOH      2177            0.0000000000
     37714      2869  MEOH      H1B             1.8844442640        0.9773026309        8.9059512245  MEOH      2177            0.0000000000
     37715      2869  MEOH      H1C             2.6914868357        2.4037714719        9.7130707024  MEOH      2177            0.0000000000
     37716      2869  MEOH      LP1A            0.6876565163        2.8604760271        9.5519250759  MEOH      2177            0.0000000000
     37717      2869  MEOH      LP1B            0.4017963356        2.4266885832        9.1486119092  MEOH      2177            0.0000000000
     37718      2870  MEOH      C1            -23.8892134893       -4.6030005778       22.0910475464  MEOH      2178            0.0000000000
     37719      2870  MEOH      DC1           -23.9075957141       -4.6086700760       22.0965433974  MEOH      2178            0.0000000000
     37720      2870  MEOH      O1            -23.3729890546       -3.3574953885       21.6457700859  MEOH      2178            0.0000000000
     37721      2870  MEOH      DO1           -23.3911530894       -3.3630753357       21.6419245155  MEOH      2178            0.0000000000
     37722      2870  MEOH      HO1           -23.9958186436       -2.6510368676       21.8779330941  MEOH      2178            0.0000000000
     37723      2870  MEOH      HO2           -22.4571629133       -3.3213363357       21.9633468512  MEOH      2178            0.0000000000
     37724      2870  MEOH      H1A           -23.1520582467       -5.3840240457       21.8065734849  MEOH      2178            0.0000000000
     37725      2870  MEOH      H1B           -24.8572881621       -4.8281693783       21.5946087898  MEOH      2178            0.0000000000
     37726      2870  MEOH      H1C           -23.9938300201       -4.6008390604       23.1971088967  MEOH      2178            0.0000000000
     37727      2870  MEOH      LP1A          -23.1721089297       -3.2153179245       21.8946329882  MEOH      2178            0.0000000000
     37728      2870  MEOH      LP1B          -23.4775547365       -3.2949938247       21.3176549039  MEOH      2178            0.0000000000
     37729      2871  MEOH      C1             10.7901758743      -24.5588829373       -9.0153221882  MEOH      2179            0.0000000000
     37730      2871  MEOH      DC1            10.8090806860      -24.5700954196       -9.0247812271  MEOH      2179            0.0000000000
     37731      2871  MEOH      O1              9.9683406382      -23.4634335154       -8.6139259683  MEOH      2179            0.0000000000
     37732      2871  MEOH      DO1             9.9926072359      -23.4697141465       -8.6256201200  MEOH      2179            0.0000000000
     37733      2871  MEOH      HO1             9.8884698118      -22.8225584514       -9.3376661184  MEOH      2179            0.0000000000
     37734      2871  MEOH      HO2             9.1588421508      -23.8689758490       -8.2658633094  MEOH      2179            0.0000000000
     37735      2871  MEOH      H1A            10.8623818664      -25.2811100654       -8.1741948075  MEOH      2179            0.0000000000
     37736      2871  MEOH      H1B            11.8112368367      -24.1996248048       -9.2657001133  MEOH      2179            0.0000000000
     37737      2871  MEOH      H1C            10.3333624647      -25.0716843703       -9.8886361068  MEOH      2179            0.0000000000
     37738      2871  MEOH      LP1A            9.6329529056      -23.5326038922       -8.6862483560  MEOH      2179            0.0000000000
     37739      2871  MEOH      LP1B           10.1644318316      -23.2153282492       -8.4639525680  MEOH      2179            0.0000000000
     37740      2872  MEOH      C1            -16.0734723044        7.6383333579        7.8764437440  MEOH      2180            0.0000000000
     37741      2872  MEOH      DC1           -16.0664828925        7.6492806095        7.8646643234  MEOH      2180            0.0000000000
     37742      2872  MEOH      O1            -14.8102041569        8.3099426761        7.9267649921  MEOH      2180            0.0000000000
     37743      2872  MEOH      DO1           -14.8015188278        8.3172746986        7.9255899291  MEOH      2180            0.0000000000
     37744      2872  MEOH      HO1           -14.9279734347        9.0784624527        8.5067716732  MEOH      2180            0.0000000000
     37745      2872  MEOH      HO2           -14.1603295402        7.6258429127        8.1516438415  MEOH      2180            0.0000000000
     37746      2872  MEOH      H1A           -16.0125230831        6.7679290295        7.1886919732  MEOH      2180            0.0000000000
     37747      2872  MEOH      H1B           -16.8647271698        8.3335103371        7.5229388563  MEOH      2180            0.0000000000
     37748      2872  MEOH      H1C           -16.3514990992        7.2601006858        8.8834006193  MEOH      2180            0.0000000000
     37749      2872  MEOH      LP1A          -14.6156366258        8.1796438019        8.1868912677  MEOH      2180            0.0000000000
     37750      2872  MEOH      LP1B          -14.7890335439        8.5446736705        7.6680118948  MEOH      2180            0.0000000000
     37751      2873  MEOH      C1             -2.2350746463       23.8581462765       36.6957371208  MEOH      2181            0.0000000000
     37752      2873  MEOH      DC1            -2.2316785370       23.8488969931       36.6637842229  MEOH      2181            0.0000000000
     37753      2873  MEOH      O1             -2.4799848072       25.2180615629       36.9969482209  MEOH      2181            0.0000000000
     37754      2873  MEOH      DO1            -2.4848823018       25.2024169110       36.9560309495  MEOH      2181            0.0000000000
     37755      2873  MEOH      HO1            -2.0005073616       25.8632968310       36.4541104662  MEOH      2181            0.0000000000
     37756      2873  MEOH      HO2            -3.3819730014       25.3162437998       37.3399898316  MEOH      2181            0.0000000000
     37757      2873  MEOH      H1A            -2.5342050043       23.2758130982       37.5933618199  MEOH      2181            0.0000000000
     37758      2873  MEOH      H1B            -1.1563613107       23.6981562647       36.4833654271  MEOH      2181            0.0000000000
     37759      2873  MEOH      H1C            -2.8855324668       23.5335202546       35.8555921514  MEOH      2181            0.0000000000
     37760      2873  MEOH      LP1A           -2.7525937040       25.3346507875       36.8109607426  MEOH      2181            0.0000000000
     37761      2873  MEOH      LP1B           -2.2560978446       25.3285402187       37.2422421152  MEOH      2181            0.0000000000
     37762      2874  MEOH      C1             13.3792183146        7.8568751446      -11.8807019619  MEOH      2182            0.0000000000
     37763      2874  MEOH      DC1            13.3884852372        7.8671573625      -11.8909369449  MEOH      2182            0.0000000000
     37764      2874  MEOH      O1             13.9551688423        6.5643164350      -11.7086043150  MEOH      2182            0.0000000000
     37765      2874  MEOH      DO1            13.9707960096        6.5759339973      -11.7081530594  MEOH      2182            0.0000000000
     37766      2874  MEOH      HO1            14.2048977010        6.4743026196      -10.7756343207  MEOH      2182            0.0000000000
     37767      2874  MEOH      HO2            13.3323840220        5.9381755698      -12.1098357758  MEOH      2182            0.0000000000
     37768      2874  MEOH      H1A            13.1285508063        8.0184557805      -12.9509255359  MEOH      2182            0.0000000000
     37769      2874  MEOH      H1B            14.1073939990        8.6237974365      -11.5402443685  MEOH      2182            0.0000000000
     37770      2874  MEOH      H1C            12.4528910198        7.9431986346      -11.2734236085  MEOH      2182            0.0000000000
     37771      2874  MEOH      LP1A           13.7055233209        6.3312466136      -11.6320826055  MEOH      2182            0.0000000000
     37772      2874  MEOH      LP1B           14.2999248916        6.5780927694      -11.7673706238  MEOH      2182            0.0000000000
     37773      2875  MEOH      C1            -30.3362926189       -5.8121924200      -30.9063885682  MEOH      2183            0.0000000000
     37774      2875  MEOH      DC1           -30.3591650044       -5.8067493972      -30.9066505107  MEOH      2183            0.0000000000
     37775      2875  MEOH      O1            -29.0315643824       -5.6972696688      -31.4821886142  MEOH      2183            0.0000000000
     37776      2875  MEOH      DO1           -29.0477659526       -5.6726249438      -31.4779031363  MEOH      2183            0.0000000000
     37777      2875  MEOH      HO1           -28.4796472230       -6.3815294972      -31.0722179602  MEOH      2183            0.0000000000
     37778      2875  MEOH      HO2           -29.1704718199       -5.7585214222      -32.4402350361  MEOH      2183            0.0000000000
     37779      2875  MEOH      H1A           -31.0551911423       -5.1998399347      -31.4916494900  MEOH      2183            0.0000000000
     37780      2875  MEOH      H1B           -30.3236464892       -5.4507691971      -29.8558961447  MEOH      2183            0.0000000000
     37781      2875  MEOH      H1C           -30.6546075596       -6.8765010718      -30.9219992423  MEOH      2183            0.0000000000
     37782      2875  MEOH      LP1A          -29.0101587503       -5.8945366964      -31.7705070471  MEOH      2183            0.0000000000
     37783      2875  MEOH      LP1B          -28.8382772767       -5.4720230273      -31.2967053393  MEOH      2183            0.0000000000
     37784      2876  MEOH      C1             -4.0467049391       -0.3784187140       -8.8594872258  MEOH      2184            0.0000000000
     37785      2876  MEOH      DC1            -4.0476266135       -0.3935776498       -8.8630253374  MEOH      2184            0.0000000000
     37786      2876  MEOH      O1             -5.4467612720       -0.5245924030       -8.6083156909  MEOH      2184            0.0000000000
     37787      2876  MEOH      DO1            -5.4475789965       -0.5368447322       -8.6117740249  MEOH      2184            0.0000000000
     37788      2876  MEOH      HO1            -5.5637790192       -1.2779640772       -8.0086174606  MEOH      2184            0.0000000000
     37789      2876  MEOH      HO2            -5.7451593904        0.3509395534       -8.3162500188  MEOH      2184            0.0000000000
     37790      2876  MEOH      H1A            -3.8825328370        0.4917229925       -9.5304730170  MEOH      2184            0.0000000000
     37791      2876  MEOH      H1B            -3.6447537276       -1.2921267706       -9.3472308172  MEOH      2184            0.0000000000
     37792      2876  MEOH      H1C            -3.5042783507       -0.1979366023       -7.9068484670  MEOH      2184            0.0000000000
     37793      2876  MEOH      LP1A           -5.5397555106       -0.3305550912       -8.3322693303  MEOH      2184            0.0000000000
     37794      2876  MEOH      LP1B           -5.5903440226       -0.7341158120       -8.8491142266  MEOH      2184            0.0000000000
     37795      2877  MEOH      C1            -17.2641627279        9.0503733659      -29.6701570313  MEOH      2185            0.0000000000
     37796      2877  MEOH      DC1           -17.2750338642        9.0542795011      -29.6565625732  MEOH      2185            0.0000000000
     37797      2877  MEOH      O1            -18.5263541752        9.6214690790      -29.3286886271  MEOH      2185            0.0000000000
     37798      2877  MEOH      DO1           -18.5321460287        9.6298034434      -29.3167876045  MEOH      2185            0.0000000000
     37799      2877  MEOH      HO1           -18.9272172079        9.8767280740      -30.1742959089  MEOH      2185            0.0000000000
     37800      2877  MEOH      HO2           -18.9646066382        8.9585671910      -28.7724549842  MEOH      2185            0.0000000000
     37801      2877  MEOH      H1A           -16.7217745102        8.7216601619      -28.7579708380  MEOH      2185            0.0000000000
     37802      2877  MEOH      H1B           -16.6472237003        9.8049864674      -30.2033233312  MEOH      2185            0.0000000000
     37803      2877  MEOH      H1C           -17.4136741078        8.1745550561      -30.3371725008  MEOH      2185            0.0000000000
     37804      2877  MEOH      LP1A          -18.7715334462        9.3719482338      -29.3174426117  MEOH      2185            0.0000000000
     37805      2877  MEOH      LP1B          -18.4908055312        9.9649340326      -29.2715211579  MEOH      2185            0.0000000000
     37806      2878  MEOH      C1             -4.4218004094       23.9320804601        9.1840109597  MEOH      2186            0.0000000000
     37807      2878  MEOH      DC1            -4.4296577578       23.9382773622        9.1869839521  MEOH      2186            0.0000000000
     37808      2878  MEOH      O1             -5.4360434487       24.8498708036        8.7674185627  MEOH      2186            0.0000000000
     37809      2878  MEOH      DO1            -5.4442491090       24.8646478267        8.7778802786  MEOH      2186            0.0000000000
     37810      2878  MEOH      HO1            -6.1604366686       24.7848363049        9.4092323819  MEOH      2186            0.0000000000
     37811      2878  MEOH      HO2            -4.9870885915       25.6891266654        8.5803647346  MEOH      2186            0.0000000000
     37812      2878  MEOH      H1A            -3.6462505670       23.8437487282        8.3934156473  MEOH      2186            0.0000000000
     37813      2878  MEOH      H1B            -4.8606301230       22.9260662106        9.3563037695  MEOH      2186            0.0000000000
     37814      2878  MEOH      H1C            -3.9487200037       24.2875646260       10.1243018399  MEOH      2186            0.0000000000
     37815      2878  MEOH      LP1A           -5.3783296995       25.1645628757        8.9093270646  MEOH      2186            0.0000000000
     37816      2878  MEOH      LP1B           -5.6571121846       24.6919205520        8.5467823644  MEOH      2186            0.0000000000
     37817      2879  MEOH      C1            -32.0817044175        1.7539311227      -27.9190301566  MEOH      2187            0.0000000000
     37818      2879  MEOH      DC1           -32.0850344770        1.7577494515      -27.9201822448  MEOH      2187            0.0000000000
     37819      2879  MEOH      O1            -31.5385260895        1.1432703032      -26.7462476239  MEOH      2187            0.0000000000
     37820      2879  MEOH      DO1           -31.5413281044        1.1489177991      -26.7496796838  MEOH      2187            0.0000000000
     37821      2879  MEOH      HO1           -31.1369106553        1.8304288150      -26.1917945390  MEOH      2187            0.0000000000
     37822      2879  MEOH      HO2           -32.2372468474        0.5706857838      -26.3929258575  MEOH      2187            0.0000000000
     37823      2879  MEOH      H1A           -32.4118749080        0.9611658948      -28.6238930806  MEOH      2187            0.0000000000
     37824      2879  MEOH      H1B           -31.3118070102        2.3804481786      -28.4180846238  MEOH      2187            0.0000000000
     37825      2879  MEOH      H1C           -32.9591528126        2.3811291157      -27.6525193846  MEOH      2187            0.0000000000
     37826      2879  MEOH      LP1A          -31.7816688481        1.1295665898      -26.4948638392  MEOH      2187            0.0000000000
     37827      2879  MEOH      LP1B          -31.2079403142        1.0444246349      -26.8049211189  MEOH      2187            0.0000000000
     37828      2880  MEOH      C1             -8.6182778508       18.3785533077        3.5777783316  MEOH      2188            0.0000000000
     37829      2880  MEOH      DC1            -8.6257069870       18.3872704217        3.5821015764  MEOH      2188            0.0000000000
     37830      2880  MEOH      O1             -8.0288581213       17.9265755737        2.3593396337  MEOH      2188            0.0000000000
     37831      2880  MEOH      DO1            -8.0267076658       17.9373279171        2.3593577852  MEOH      2188            0.0000000000
     37832      2880  MEOH      HO1            -7.3220568427       17.3105341952        2.6079859163  MEOH      2188            0.0000000000
     37833      2880  MEOH      HO2            -8.7686848163       17.6158464154        1.8143590363  MEOH      2188            0.0000000000
     37834      2880  MEOH      H1A            -9.4203838255       19.1122172805        3.3482479820  MEOH      2188            0.0000000000
     37835      2880  MEOH      H1B            -7.8377497818       18.8564320934        4.2076424436  MEOH      2188            0.0000000000
     37836      2880  MEOH      H1C            -9.0677975602       17.5301211108        4.1367200464  MEOH      2188            0.0000000000
     37837      2880  MEOH      LP1A           -8.1968521731       17.6422861735        2.2433330153  MEOH      2188            0.0000000000
     37838      2880  MEOH      LP1B           -7.7692953170       18.1415622418        2.2649580511  MEOH      2188            0.0000000000
     37839      2881  MEOH      C1             24.8584094361      -27.2774411869      -28.2172860390  MEOH      2189            0.0000000000
     37840      2881  MEOH      DC1            24.8452176190      -27.2819044003      -28.2248693783  MEOH      2189            0.0000000000
     37841      2881  MEOH      O1             23.7073043916      -27.2695202485      -29.0651861806  MEOH      2189            0.0000000000
     37842      2881  MEOH      DO1            23.7011530877      -27.2757138911      -29.0724426964  MEOH      2189            0.0000000000
     37843      2881  MEOH      HO1            23.1440540189      -26.5358210848      -28.7730653926  MEOH      2189            0.0000000000
     37844      2881  MEOH      HO2            24.0496471025      -27.3002395561      -29.9722461530  MEOH      2189            0.0000000000
     37845      2881  MEOH      H1A            25.4896956314      -28.1641180305      -28.4400031611  MEOH      2189            0.0000000000
     37846      2881  MEOH      H1B            24.5523069469      -27.3087725758      -27.1497465265  MEOH      2189            0.0000000000
     37847      2881  MEOH      H1C            25.4678570726      -26.3658959928      -28.3961153919  MEOH      2189            0.0000000000
     37848      2881  MEOH      LP1A           23.7678576613      -27.0715438015      -29.3473893485  MEOH      2189            0.0000000000
     37849      2881  MEOH      LP1B           23.4581284344      -27.4752329809      -28.9306736752  MEOH      2189            0.0000000000
     37850      2882  MEOH      C1             26.7741201523       23.8748502291      -31.2382265990  MEOH      2190            0.0000000000
     37851      2882  MEOH      DC1            26.7690462732       23.8739842939      -31.2360430008  MEOH      2190            0.0000000000
     37852      2882  MEOH      O1             26.5137839783       24.3397730668      -32.5641050034  MEOH      2190            0.0000000000
     37853      2882  MEOH      DO1            26.5109242779       24.3307384003      -32.5646048866  MEOH      2190            0.0000000000
     37854      2882  MEOH      HO1            25.6498866854       24.7808824397      -32.5621078988  MEOH      2190            0.0000000000
     37855      2882  MEOH      HO2            27.3078126807       24.8250408965      -32.8378449415  MEOH      2190            0.0000000000
     37856      2882  MEOH      H1A            27.6859746876       23.2402413650      -31.2488988815  MEOH      2190            0.0000000000
     37857      2882  MEOH      H1B            25.9251584467       23.2629487513      -30.8651828961  MEOH      2190            0.0000000000
     37858      2882  MEOH      H1C            26.9412390385       24.7359544885      -30.5563969045  MEOH      2190            0.0000000000
     37859      2882  MEOH      LP1A           26.6431023520       24.6623757837      -32.6053875092  MEOH      2190            0.0000000000
     37860      2882  MEOH      LP1B           26.3509172003       24.0907890628      -32.7484453908  MEOH      2190            0.0000000000
     37861      2883  MEOH      C1             -9.8840606630        0.0778602055       33.8821345289  MEOH      2191            0.0000000000
     37862      2883  MEOH      DC1            -9.8855321256        0.0718520859       33.8840541652  MEOH      2191            0.0000000000
     37863      2883  MEOH      O1             -9.0734833371       -1.0134784383       33.4589325708  MEOH      2191            0.0000000000
     37864      2883  MEOH      DO1            -9.0752254698       -1.0216088294       33.4541615380  MEOH      2191            0.0000000000
     37865      2883  MEOH      HO1            -9.1302779333       -1.7193716821       34.1217968886  MEOH      2191            0.0000000000
     37866      2883  MEOH      HO2            -9.2558877326       -1.1608572888       32.5177056529  MEOH      2191            0.0000000000
     37867      2883  MEOH      H1A            -9.7165696204        0.9409079591       33.2028582039  MEOH      2191            0.0000000000
     37868      2883  MEOH      H1B            -9.6109499751        0.3771125826       34.9166293664  MEOH      2191            0.0000000000
     37869      2883  MEOH      H1C           -10.9560702794       -0.2124246351       33.8529610063  MEOH      2191            0.0000000000
     37870      2883  MEOH      LP1A           -9.2608805385       -1.2313744279       33.2591736496  MEOH      2191            0.0000000000
     37871      2883  MEOH      LP1B           -8.7468569495       -0.9732589078       33.5780862207  MEOH      2191            0.0000000000
     37872      2884  MEOH      C1            -18.3208785863      -15.6876624734       20.5500561891  MEOH      2192            0.0000000000
     37873      2884  MEOH      DC1           -18.3181823890      -15.6764504252       20.5510073750  MEOH      2192            0.0000000000
     37874      2884  MEOH      O1            -17.6129446518      -16.5484319190       19.6579133806  MEOH      2192            0.0000000000
     37875      2884  MEOH      DO1           -17.6046061359      -16.5364046545       19.6615508096  MEOH      2192            0.0000000000
     37876      2884  MEOH      HO1           -17.4979474337      -16.0932000089       18.8091262767  MEOH      2192            0.0000000000
     37877      2884  MEOH      HO2           -16.8566471184      -16.8990000768       20.1539133896  MEOH      2192            0.0000000000
     37878      2884  MEOH      H1A           -18.6647306269      -16.2759416282       21.4275608391  MEOH      2192            0.0000000000
     37879      2884  MEOH      H1B           -19.2123457394      -15.2517659128       20.0504548447  MEOH      2192            0.0000000000
     37880      2884  MEOH      H1C           -17.6440476490      -14.8798216859       20.9016442239  MEOH      2192            0.0000000000
     37881      2884  MEOH      LP1A          -17.2681335305      -16.4996189255       19.6928788247  MEOH      2192            0.0000000000
     37882      2884  MEOH      LP1B          -17.8385289393      -16.7496519787       19.4814984811  MEOH      2192            0.0000000000
     37883      2885  MEOH      C1              7.1626349192      -12.7709473460      -15.4627602641  MEOH      2193            0.0000000000
     37884      2885  MEOH      DC1             7.1649012112      -12.7722922250      -15.4754728951  MEOH      2193            0.0000000000
     37885      2885  MEOH      O1              6.4443869934      -12.4756154107      -14.2709539411  MEOH      2193            0.0000000000
     37886      2885  MEOH      DO1             6.4540307917      -12.4736076236      -14.2780271256  MEOH      2193            0.0000000000
     37887      2885  MEOH      HO1             6.6194968861      -13.1600736809      -13.6063086208  MEOH      2193            0.0000000000
     37888      2885  MEOH      HO2             6.6028964697      -11.5374043583      -14.0824472610  MEOH      2193            0.0000000000
     37889      2885  MEOH      H1A             6.7610889631      -12.1481409561      -16.2905247517  MEOH      2193            0.0000000000
     37890      2885  MEOH      H1B             7.0583723857      -13.8448054472      -15.7278623247  MEOH      2193            0.0000000000
     37891      2885  MEOH      H1C             8.2359448704      -12.5248558652      -15.3152281190  MEOH      2193            0.0000000000
     37892      2885  MEOH      LP1A            6.6379279098      -12.2724074381      -14.0617926791  MEOH      2193            0.0000000000
     37893      2885  MEOH      LP1B            6.1256896432      -12.6196640056      -14.2844447268  MEOH      2193            0.0000000000
     37894      2886  MEOH      C1             15.3457761749        2.0641987727        7.9911236356  MEOH      2194            0.0000000000
     37895      2886  MEOH      DC1            15.3342883423        2.0769148029        7.9521356827  MEOH      2194            0.0000000000
     37896      2886  MEOH      O1             15.5013801979        2.7226299650        6.7367227745  MEOH      2194            0.0000000000
     37897      2886  MEOH      DO1            15.5060301886        2.7219877455        6.7090157655  MEOH      2194            0.0000000000
     37898      2886  MEOH      HO1            16.3890961168        3.1127470081        6.7625905137  MEOH      2194            0.0000000000
     37899      2886  MEOH      HO2            15.2289755416        2.0909868063        6.0528202778  MEOH      2194            0.0000000000
     37900      2886  MEOH      H1A            14.2941252345        1.7381858771        8.1396729268  MEOH      2194            0.0000000000
     37901      2886  MEOH      H1B            15.6128621543        2.7727702131        8.8040889444  MEOH      2194            0.0000000000
     37902      2886  MEOH      H1C            16.0088545246        1.1751453198        8.0561779329  MEOH      2194            0.0000000000
     37903      2886  MEOH      LP1A           15.6339993906        2.5007860151        6.5007197839  MEOH      2194            0.0000000000
     37904      2886  MEOH      LP1B           15.3843533683        3.0517362263        6.7589441594  MEOH      2194            0.0000000000
     37905      2887  MEOH      C1            -10.7023909703      -10.2435063751      -34.7999644276  MEOH      2195            0.0000000000
     37906      2887  MEOH      DC1           -10.7000329812      -10.2513264289      -34.7860782733  MEOH      2195            0.0000000000
     37907      2887  MEOH      O1            -10.0332730219      -10.4884942628      -33.5627887785  MEOH      2195            0.0000000000
     37908      2887  MEOH      DO1           -10.0418226279      -10.4980750665      -33.5453423906  MEOH      2195            0.0000000000
     37909      2887  MEOH      HO1            -9.1176460435      -10.7174938983      -33.7865886984  MEOH      2195            0.0000000000
     37910      2887  MEOH      HO2           -10.2092574432       -9.7122286557      -33.0084051652  MEOH      2195            0.0000000000
     37911      2887  MEOH      H1A           -11.7712614218      -10.0044027428      -34.6137752460  MEOH      2195            0.0000000000
     37912      2887  MEOH      H1B           -10.6445581262      -11.1446435485      -35.4472110243  MEOH      2195            0.0000000000
     37913      2887  MEOH      H1C           -10.2308790404       -9.3825693654      -35.3203344560  MEOH      2195            0.0000000000
     37914      2887  MEOH      LP1A           -9.8983115217      -10.1903924185      -33.4386087322  MEOH      2195            0.0000000000
     37915      2887  MEOH      LP1B          -10.0657399311      -10.8254340019      -33.4738083761  MEOH      2195            0.0000000000
     37916      2888  MEOH      C1            -10.4585702968       15.9608089113       13.6901450072  MEOH      2196            0.0000000000
     37917      2888  MEOH      DC1           -10.4598805358       15.9721327500       13.6876241397  MEOH      2196            0.0000000000
     37918      2888  MEOH      O1             -9.2499552110       15.4156227299       14.2213485394  MEOH      2196            0.0000000000
     37919      2888  MEOH      DO1            -9.2440972129       15.4285986551       14.2218092214  MEOH      2196            0.0000000000
     37920      2888  MEOH      HO1            -9.4917454378       14.9861088268       15.0567857264  MEOH      2196            0.0000000000
     37921      2888  MEOH      HO2            -8.8832694437       14.8741352762       13.5049457991  MEOH      2196            0.0000000000
     37922      2888  MEOH      H1A           -10.2663311833       16.3886782734       12.6830238960  MEOH      2196            0.0000000000
     37923      2888  MEOH      H1B           -10.8388335115       16.7642762332       14.3565991693  MEOH      2196            0.0000000000
     37924      2888  MEOH      H1C           -11.2267222457       15.1631768455       13.6004417579  MEOH      2196            0.0000000000
     37925      2888  MEOH      LP1A           -9.2019375210       15.0906834960       14.1004816881  MEOH      2196            0.0000000000
     37926      2888  MEOH      LP1B           -9.0895934045       15.6532019072       14.4221973023  MEOH      2196            0.0000000000
     37927      2889  MEOH      C1            -29.9621602234      -35.9387613397       23.0259974119  MEOH      2197            0.0000000000
     37928      2889  MEOH      DC1           -29.9738793060      -35.9464664007       23.0184331059  MEOH      2197            0.0000000000
     37929      2889  MEOH      O1            -28.9415600905      -34.9436008991       23.0358799055  MEOH      2197            0.0000000000
     37930      2889  MEOH      DO1           -28.9568039299      -34.9510573293       23.0289174137  MEOH      2197            0.0000000000
     37931      2889  MEOH      HO1           -28.2623521084      -35.1584491712       22.3775359703  MEOH      2197            0.0000000000
     37932      2889  MEOH      HO2           -29.3889869088      -34.0832288095       23.0575388832  MEOH      2197            0.0000000000
     37933      2889  MEOH      H1A           -30.5865965236      -35.8000360422       23.9343781697  MEOH      2197            0.0000000000
     37934      2889  MEOH      H1B           -29.5155055232      -36.9557770547       23.0483494802  MEOH      2197            0.0000000000
     37935      2889  MEOH      H1C           -30.6108190336      -35.8199768900       22.1318760542  MEOH      2197            0.0000000000
     37936      2889  MEOH      LP1A          -29.0239059610      -34.6854767836       22.8143147941  MEOH      2197            0.0000000000
     37937      2889  MEOH      LP1B          -28.6933671030      -35.0289649779       23.2674251818  MEOH      2197            0.0000000000
     37938      2890  MEOH      C1             13.3911738338       12.5182310353       -9.0360029713  MEOH      2198            0.0000000000
     37939      2890  MEOH      DC1            13.4217357370       12.5337802182       -9.0336205438  MEOH      2198            0.0000000000
     37940      2890  MEOH      O1             14.4972987182       12.0847927892       -8.2371230607  MEOH      2198            0.0000000000
     37941      2890  MEOH      DO1            14.5230694825       12.0937303964       -8.2404136416  MEOH      2198            0.0000000000
     37942      2890  MEOH      HO1            14.9581515398       11.3925082460       -8.7363792961  MEOH      2198            0.0000000000
     37943      2890  MEOH      HO2            14.9389786527       12.8772131846       -7.8937737451  MEOH      2198            0.0000000000
     37944      2890  MEOH      H1A            12.6967344590       13.1374415560       -8.4288347197  MEOH      2198            0.0000000000
     37945      2890  MEOH      H1B            12.8284291597       11.6457913975       -9.4315892608  MEOH      2198            0.0000000000
     37946      2890  MEOH      H1C            13.7545620395       13.0981030155       -9.9112277993  MEOH      2198            0.0000000000
     37947      2890  MEOH      LP1A           14.7790574222       12.2804745788       -8.3065541052  MEOH      2198            0.0000000000
     37948      2890  MEOH      LP1B           14.3975562407       11.8241273478       -8.0259241832  MEOH      2198            0.0000000000
     37949      2891  MEOH      C1             -4.6124733039        8.0292209175       23.6167144820  MEOH      2199            0.0000000000
     37950      2891  MEOH      DC1            -4.6110593082        8.0600278429       23.6078317144  MEOH      2199            0.0000000000
     37951      2891  MEOH      O1             -4.8599112563        9.3949581250       23.9646726338  MEOH      2199            0.0000000000
     37952      2891  MEOH      DO1            -4.8683896094        9.4194132851       23.9589329089  MEOH      2199            0.0000000000
     37953      2891  MEOH      HO1            -4.7547450117        9.9082285977       23.1483433592  MEOH      2199            0.0000000000
     37954      2891  MEOH      HO2            -5.7083502721        9.3943732527       24.4348331325  MEOH      2199            0.0000000000
     37955      2891  MEOH      H1A            -4.7104805526        7.3741413836       24.5086709739  MEOH      2199            0.0000000000
     37956      2891  MEOH      H1B            -3.5786760969        7.9140794552       23.2264238470  MEOH      2199            0.0000000000
     37957      2891  MEOH      H1C            -5.3403739161        7.6858787913       22.8508176981  MEOH      2199            0.0000000000
     37958      2891  MEOH      LP1A           -5.2009320328        9.4668156362       23.9324030187  MEOH      2199            0.0000000000
     37959      2891  MEOH      LP1B           -4.5621702886        9.5484936526       24.0660489522  MEOH      2199            0.0000000000
     37960      2892  MEOH      C1             -8.3403309275      -34.7973420247       18.8922235363  MEOH      2200            0.0000000000
     37961      2892  MEOH      DC1            -8.3420503113      -34.7979126411       18.9059679121  MEOH      2200            0.0000000000
     37962      2892  MEOH      O1             -9.0406173886      -35.6656792046       17.9981648540  MEOH      2200            0.0000000000
     37963      2892  MEOH      DO1            -9.0359336809      -35.6743003346       18.0070491789  MEOH      2200            0.0000000000
     37964      2892  MEOH      HO1            -8.6694343680      -35.5300649981       17.1123138769  MEOH      2200            0.0000000000
     37965      2892  MEOH      HO2            -9.0585586215      -36.5394867113       18.4189243500  MEOH      2200            0.0000000000
     37966      2892  MEOH      H1A            -8.8566417856      -34.7724820480       19.8756492224  MEOH      2200            0.0000000000
     37967      2892  MEOH      H1B            -8.3108331499      -33.7716675442       18.4662625741  MEOH      2200            0.0000000000
     37968      2892  MEOH      H1C            -7.2979680341      -35.1566313543       19.0290145362  MEOH      2200            0.0000000000
     37969      2892  MEOH      LP1A           -8.8811676643      -35.9769342650       17.9841622539  MEOH      2200            0.0000000000
     37970      2892  MEOH      LP1B           -9.3237074508      -35.5037089444       17.8711780377  MEOH      2200            0.0000000000
     37971      2893  MEOH      C1            -23.5665246388      -28.9094678198       32.7444947745  MEOH      2201            0.0000000000
     37972      2893  MEOH      DC1           -23.5484155662      -28.9392744370       32.7546396703  MEOH      2201            0.0000000000
     37973      2893  MEOH      O1            -22.9156451678      -30.1640052577       32.9348669538  MEOH      2201            0.0000000000
     37974      2893  MEOH      DO1           -22.8939657620      -30.1855046024       32.9486306727  MEOH      2201            0.0000000000
     37975      2893  MEOH      HO1           -23.6018582102      -30.8268559507       32.7598223335  MEOH      2201            0.0000000000
     37976      2893  MEOH      HO2           -22.1045324043      -30.1245547670       32.4043580047  MEOH      2201            0.0000000000
     37977      2893  MEOH      H1A           -22.8898159029      -28.0650722152       32.9962532913  MEOH      2201            0.0000000000
     37978      2893  MEOH      H1B           -24.4631150090      -28.8614086995       33.3988165829  MEOH      2201            0.0000000000
     37979      2893  MEOH      H1C           -23.8884936475      -28.7949302320       31.6873580280  MEOH      2201            0.0000000000
     37980      2893  MEOH      LP1A          -22.7711306348      -30.2706885060       32.6344768170  MEOH      2201            0.0000000000
     37981      2893  MEOH      LP1B          -22.9411154749      -30.2624775772       33.2697616622  MEOH      2201            0.0000000000
     37982      2894  MEOH      C1             32.7214523296       19.6979442666       11.0853701807  MEOH      2202            0.0000000000
     37983      2894  MEOH      DC1            32.7137404606       19.7135999007       11.0910134275  MEOH      2202            0.0000000000
     37984      2894  MEOH      O1             33.8696381823       20.0058320663       10.2978450248  MEOH      2202            0.0000000000
     37985      2894  MEOH      DO1            33.8626747980       20.0268977321       10.2996911907  MEOH      2202            0.0000000000
     37986      2894  MEOH      HO1            34.5896646621       19.4648452884       10.6581159986  MEOH      2202            0.0000000000
     37987      2894  MEOH      HO2            33.5961549533       19.8318661333        9.3836006493  MEOH      2202            0.0000000000
     37988      2894  MEOH      H1A            31.8338603303       20.2145838028       10.6615954369  MEOH      2202            0.0000000000
     37989      2894  MEOH      H1B            32.8766839558       20.0223642216       12.1365484886  MEOH      2202            0.0000000000
     37990      2894  MEOH      H1C            32.5448100292       18.6012688716       11.0648378210  MEOH      2202            0.0000000000
     37991      2894  MEOH      LP1A           33.8850500430       19.7930535289       10.0203783267  MEOH      2202            0.0000000000
     37992      2894  MEOH      LP1B           34.0407636119       20.2776592801       10.4368632006  MEOH      2202            0.0000000000
     37993      2895  MEOH      C1              1.4531959880       16.0284472679      -12.6397016356  MEOH      2203            0.0000000000
     37994      2895  MEOH      DC1             1.4605302682       16.0317661780      -12.6444022814  MEOH      2203            0.0000000000
     37995      2895  MEOH      O1              1.6753531814       14.6391734707      -12.4688072897  MEOH      2203            0.0000000000
     37996      2895  MEOH      DO1             1.6844234656       14.6435401291      -12.4824719457  MEOH      2203            0.0000000000
     37997      2895  MEOH      HO1             1.2595750186       14.1648362889      -13.2057148534  MEOH      2203            0.0000000000
     37998      2895  MEOH      HO2             2.6133449885       14.5297475903      -12.2472280762  MEOH      2203            0.0000000000
     37999      2895  MEOH      H1A             1.7766753630       16.5526156720      -11.7150776153  MEOH      2203            0.0000000000
     38000      2895  MEOH      H1B             0.3751610655       16.2437434629      -12.8003542240  MEOH      2203            0.0000000000
     38001      2895  MEOH      H1C             2.0431741503       16.4044267399      -13.5027695397  MEOH      2203            0.0000000000
     38002      2895  MEOH      LP1A            1.9760192478       14.5462878290      -12.6220136018  MEOH      2203            0.0000000000
     38003      2895  MEOH      LP1B            1.4180192552       14.4994917727      -12.2770567391  MEOH      2203            0.0000000000
     38004      2896  MEOH      C1            -31.7536335503        8.6138674742      -29.6701072609  MEOH      2204            0.0000000000
     38005      2896  MEOH      DC1           -31.7603601387        8.6175831595      -29.6707779838  MEOH      2204            0.0000000000
     38006      2896  MEOH      O1            -31.5343310298        9.8645878746      -30.3284884049  MEOH      2204            0.0000000000
     38007      2896  MEOH      DO1           -31.5272399030        9.8698124584      -30.3263372447  MEOH      2204            0.0000000000
     38008      2896  MEOH      HO1           -31.0087964588        9.6743306511      -31.1212781656  MEOH      2204            0.0000000000
     38009      2896  MEOH      HO2           -32.4056210059       10.2820826544      -30.4148127143  MEOH      2204            0.0000000000
     38010      2896  MEOH      H1A           -32.2579077528        8.7920594120      -28.6963125382  MEOH      2204            0.0000000000
     38011      2896  MEOH      H1B           -30.7884379862        8.1022832742      -29.4676223686  MEOH      2204            0.0000000000
     38012      2896  MEOH      H1C           -32.3888190149        7.9494009200      -30.2940821200  MEOH      2204            0.0000000000
     38013      2896  MEOH      LP1A          -31.7953555143        9.9293440458      -30.5524813886  MEOH      2204            0.0000000000
     38014      2896  MEOH      LP1B          -31.2425645247       10.0145485809      -30.2064880233  MEOH      2204            0.0000000000
     38015      2897  MEOH      C1             -8.2160557762       -5.2135657050      -23.4756796987  MEOH      2205            0.0000000000
     38016      2897  MEOH      DC1            -8.2093443413       -5.2222934834      -23.4864466617  MEOH      2205            0.0000000000
     38017      2897  MEOH      O1             -8.2725085744       -5.9597133928      -24.6926839039  MEOH      2205            0.0000000000
     38018      2897  MEOH      DO1            -8.2625932438       -5.9606164413      -24.7032600148  MEOH      2205            0.0000000000
     38019      2897  MEOH      HO1            -8.5188015801       -6.8679122103      -24.4572807108  MEOH      2205            0.0000000000
     38020      2897  MEOH      HO2            -8.8376962677       -5.4491634875      -25.2933515876  MEOH      2205            0.0000000000
     38021      2897  MEOH      H1A            -7.9197675542       -4.1643058513      -23.6891932800  MEOH      2205            0.0000000000
     38022      2897  MEOH      H1B            -7.4771647567       -5.6657443872      -22.7800537211  MEOH      2205            0.0000000000
     38023      2897  MEOH      H1C            -9.2138129855       -5.2139444081      -22.9870065881  MEOH      2205            0.0000000000
     38024      2897  MEOH      LP1A           -8.5936256199       -5.9398571822      -24.8304865670  MEOH      2205            0.0000000000
     38025      2897  MEOH      LP1B           -7.9579426302       -6.0952032930      -24.7647307894  MEOH      2205            0.0000000000
     38026      2898  MEOH      C1            -12.8666889129       -0.6762753091       31.7366359640  MEOH      2206            0.0000000000
     38027      2898  MEOH      DC1           -12.8638294239       -0.6857074365       31.7330222571  MEOH      2206            0.0000000000
     38028      2898  MEOH      O1            -11.8507314336        0.2746426518       31.4139719582  MEOH      2206            0.0000000000
     38029      2898  MEOH      DO1           -11.8544630934        0.2611071939       31.4104551373  MEOH      2206            0.0000000000
     38030      2898  MEOH      HO1           -11.9180335532        1.0117944689       32.0408512315  MEOH      2206            0.0000000000
     38031      2898  MEOH      HO2           -11.0234707769       -0.2284440008       31.3552895278  MEOH      2206            0.0000000000
     38032      2898  MEOH      H1A           -12.8983883542       -1.4632817496       30.9530946383  MEOH      2206            0.0000000000
     38033      2898  MEOH      H1B           -13.8567739976       -0.1739090905       31.7776323957  MEOH      2206            0.0000000000
     38034      2898  MEOH      H1C           -12.6577636752       -1.1542094210       32.7175795057  MEOH      2206            0.0000000000
     38035      2898  MEOH      LP1A          -11.5556237578        0.1974002672       31.5855676274  MEOH      2206            0.0000000000
     38036      2898  MEOH      LP1B          -11.9720572935        0.5045793791       31.1796449705  MEOH      2206            0.0000000000
     38037      2899  MEOH      C1             -5.6744273654      -10.1934277845       -0.0748199682  MEOH      2207            0.0000000000
     38038      2899  MEOH      DC1            -5.6716869316      -10.2079235907       -0.0761521023  MEOH      2207            0.0000000000
     38039      2899  MEOH      O1             -4.7099052266      -11.2182572904        0.1881610166  MEOH      2207            0.0000000000
     38040      2899  MEOH      DO1            -4.7226751355      -11.2341449010        0.1941247525  MEOH      2207            0.0000000000
     38041      2899  MEOH      HO1            -4.4644015636      -11.6002033489       -0.6690117547  MEOH      2207            0.0000000000
     38042      2899  MEOH      HO2            -4.0095489399      -10.7824699115        0.6985436505  MEOH      2207            0.0000000000
     38043      2899  MEOH      H1A            -5.9300482454       -9.6627633700        0.8671854701  MEOH      2207            0.0000000000
     38044      2899  MEOH      H1B            -6.6044011876      -10.6326775938       -0.4949738628  MEOH      2207            0.0000000000
     38045      2899  MEOH      H1C            -5.2667854995       -9.4417175928       -0.7841019283  MEOH      2207            0.0000000000
     38046      2899  MEOH      LP1A           -4.3873974270      -11.0822901849        0.1868705287  MEOH      2207            0.0000000000
     38047      2899  MEOH      LP1B           -4.8718130825      -11.5233684571        0.2446678496  MEOH      2207            0.0000000000
     38048      2900  MEOH      C1             34.4151649391       -3.3804486867       36.2095469494  MEOH      2208            0.0000000000
     38049      2900  MEOH      DC1            34.4238921100       -3.3880374162       36.2155733197  MEOH      2208            0.0000000000
     38050      2900  MEOH      O1             34.8777561653       -4.5017056243       35.4619398069  MEOH      2208            0.0000000000
     38051      2900  MEOH      DO1            34.8876846400       -4.5025590967       35.4576282194  MEOH      2208            0.0000000000
     38052      2900  MEOH      HO1            35.6702668996       -4.8335376427       35.9121777975  MEOH      2208            0.0000000000
     38053      2900  MEOH      HO2            34.1036936831       -5.0727959457       35.3371074455  MEOH      2208            0.0000000000
     38054      2900  MEOH      H1A            33.4684205147       -2.9929160860       35.7761712697  MEOH      2208            0.0000000000
     38055      2900  MEOH      H1B            35.1711053121       -2.5663577995       36.2210003416  MEOH      2208            0.0000000000
     38056      2900  MEOH      H1C            34.2521355403       -3.7167149223       37.2558105079  MEOH      2208            0.0000000000
     38057      2900  MEOH      LP1A           34.7250444131       -4.7943708562       35.5782419255  MEOH      2208            0.0000000000
     38058      2900  MEOH      LP1B           35.0995273570       -4.3960881358       35.2126157515  MEOH      2208            0.0000000000
     38059      2901  MEOH      C1            -30.0537886130      -20.6450173219      -33.1804544798  MEOH      2209            0.0000000000
     38060      2901  MEOH      DC1           -30.0502006505      -20.6366535546      -33.1702108985  MEOH      2209            0.0000000000
     38061      2901  MEOH      O1            -30.0747820616      -21.6316097576      -34.2145705257  MEOH      2209            0.0000000000
     38062      2901  MEOH      DO1           -30.0809515631      -21.6293240253      -34.2059180493  MEOH      2209            0.0000000000
     38063      2901  MEOH      HO1           -29.3569550843      -22.2658568346      -34.0617468500  MEOH      2209            0.0000000000
     38064      2901  MEOH      HO2           -30.9975095520      -21.9055407376      -34.3347195904  MEOH      2209            0.0000000000
     38065      2901  MEOH      H1A           -30.6862762112      -19.7787320418      -33.4699890227  MEOH      2209            0.0000000000
     38066      2901  MEOH      H1B           -29.0141059039      -20.2861149123      -33.0237065095  MEOH      2209            0.0000000000
     38067      2901  MEOH      H1C           -30.4557925350      -21.0774306981      -32.2393208446  MEOH      2209            0.0000000000
     38068      2901  MEOH      LP1A          -30.2834681578      -21.8970855939      -34.1225232898  MEOH      2209            0.0000000000
     38069      2901  MEOH      LP1B          -29.8786583173      -21.5261755200      -34.4846058909  MEOH      2209            0.0000000000
     38070      2902  MEOH      C1             27.1235290386       -8.2449378910        8.8428740962  MEOH      2210            0.0000000000
     38071      2902  MEOH      DC1            27.1126023642       -8.2424116763        8.8420983864  MEOH      2210            0.0000000000
     38072      2902  MEOH      O1             28.2581913038       -7.6087097900        9.4321321934  MEOH      2210            0.0000000000
     38073      2902  MEOH      DO1            28.2531151501       -7.6106150895        9.4306809926  MEOH      2210            0.0000000000
     38074      2902  MEOH      HO1            28.8547277701       -7.3433898805        8.7147413724  MEOH      2210            0.0000000000
     38075      2902  MEOH      HO2            27.9052878615       -6.9463062733       10.0466081839  MEOH      2210            0.0000000000
     38076      2902  MEOH      H1A            26.4647777936       -8.6476976606        9.6417184903  MEOH      2210            0.0000000000
     38077      2902  MEOH      H1B            27.4506549180       -9.0918407389        8.2025107422  MEOH      2210            0.0000000000
     38078      2902  MEOH      H1C            26.5563849495       -7.5124761145        8.2295484649  MEOH      2210            0.0000000000
     38079      2902  MEOH      LP1A           28.1982999819       -7.2656574957        9.4671772065  MEOH      2210            0.0000000000
     38080      2902  MEOH      LP1B           28.5038137551       -7.8467592040        9.5063082537  MEOH      2210            0.0000000000
     38081      2903  MEOH      C1            -12.6056042170        2.8082850027       15.7929397372  MEOH      2211            0.0000000000
     38082      2903  MEOH      DC1           -12.5721308761        2.8334950704       15.8037838744  MEOH      2211            0.0000000000
     38083      2903  MEOH      O1            -11.4757668504        3.6176080772       16.1538218020  MEOH      2211            0.0000000000
     38084      2903  MEOH      DO1           -11.4499171070        3.6393114656       16.1624645513  MEOH      2211            0.0000000000
     38085      2903  MEOH      HO1           -11.5644442456        4.4208926686       15.6173796472  MEOH      2211            0.0000000000
     38086      2903  MEOH      HO2           -11.4643064541        3.6562194344       17.1229852673  MEOH      2211            0.0000000000
     38087      2903  MEOH      H1A           -12.5692995322        1.8287280092       16.3158843484  MEOH      2211            0.0000000000
     38088      2903  MEOH      H1B           -12.6211898454        2.6132451742       14.6993047183  MEOH      2211            0.0000000000
     38089      2903  MEOH      H1C           -13.5519574460        3.3228236027       16.0649445084  MEOH      2211            0.0000000000
     38090      2903  MEOH      LP1A          -11.5566686195        3.8212276494       16.4267576435  MEOH      2211            0.0000000000
     38091      2903  MEOH      LP1B          -11.2030043353        3.5408100597       15.9483889057  MEOH      2211            0.0000000000
     38092      2904  MEOH      C1            -25.5283308571      -11.1863799973       17.9627957490  MEOH      2212            0.0000000000
     38093      2904  MEOH      DC1           -25.5192141490      -11.1799759552       17.9564904114  MEOH      2212            0.0000000000
     38094      2904  MEOH      O1            -24.4228810476      -11.0526726609       17.0869962097  MEOH      2212            0.0000000000
     38095      2904  MEOH      DO1           -24.4189426883      -11.0467783381       17.0885666648  MEOH      2212            0.0000000000
     38096      2904  MEOH      HO1           -23.7898100603      -11.7621479103       17.2787408223  MEOH      2212            0.0000000000
     38097      2904  MEOH      HO2           -24.7897775820      -10.9702828432       16.1928492134  MEOH      2212            0.0000000000
     38098      2904  MEOH      H1A           -26.2845541294      -10.4097744059       17.7192159515  MEOH      2212            0.0000000000
     38099      2904  MEOH      H1B           -25.1985432579      -11.0758784402       19.0179500254  MEOH      2212            0.0000000000
     38100      2904  MEOH      H1C           -25.9755696978      -12.1948283030       17.8311506399  MEOH      2212            0.0000000000
     38101      2904  MEOH      LP1A          -24.4822857540      -11.2302134927       16.7912761835  MEOH      2212            0.0000000000
     38102      2904  MEOH      LP1B          -24.1815539431      -10.8433154630       17.2299325323  MEOH      2212            0.0000000000
     38103      2905  MEOH      C1              8.6004049414      -17.7402488581        6.4562251791  MEOH      2213            0.0000000000
     38104      2905  MEOH      DC1             8.5969102253      -17.7358927555        6.4513174893  MEOH      2213            0.0000000000
     38105      2905  MEOH      O1              7.8747250993      -16.6147178505        6.9419628666  MEOH      2213            0.0000000000
     38106      2905  MEOH      DO1             7.8640697999      -16.6213356731        6.9357423369  MEOH      2213            0.0000000000
     38107      2905  MEOH      HO1             8.3927156141      -15.8056621015        6.8077443043  MEOH      2213            0.0000000000
     38108      2905  MEOH      HO2             6.9483036063      -16.7164864370        6.6731016160  MEOH      2213            0.0000000000
     38109      2905  MEOH      H1A             8.1727683148      -18.6736247719        6.8807923937  MEOH      2213            0.0000000000
     38110      2905  MEOH      H1B             9.6619210582      -17.6552971126        6.7729075670  MEOH      2213            0.0000000000
     38111      2905  MEOH      H1C             8.5466528837      -17.7804143918        5.3472533817  MEOH      2213            0.0000000000
     38112      2905  MEOH      LP1A            7.6717665420      -16.4845709963        6.6882511791  MEOH      2213            0.0000000000
     38113      2905  MEOH      LP1B            7.9470936466      -16.5626099997        7.2804116297  MEOH      2213            0.0000000000
     38114      2906  MEOH      C1            -27.7619483549      -31.7526404680       17.4430791037  MEOH      2214            0.0000000000
     38115      2906  MEOH      DC1           -27.7652271940      -31.7654572956       17.4351017331  MEOH      2214            0.0000000000
     38116      2906  MEOH      O1            -28.1482744227      -32.8415465548       16.5967648423  MEOH      2214            0.0000000000
     38117      2906  MEOH      DO1           -28.1585549628      -32.8524716821       16.5880127797  MEOH      2214            0.0000000000
     38118      2906  MEOH      HO1           -27.6992589042      -33.6221689370       16.9572003575  MEOH      2214            0.0000000000
     38119      2906  MEOH      HO2           -29.1151638273      -32.8037314778       16.5289791529  MEOH      2214            0.0000000000
     38120      2906  MEOH      H1A           -28.1434580042      -30.7919668119       17.0357984708  MEOH      2214            0.0000000000
     38121      2906  MEOH      H1B           -26.6548778349      -31.6978875729       17.5186964657  MEOH      2214            0.0000000000
     38122      2906  MEOH      H1C           -28.1768183395      -31.8969635310       18.4635568104  MEOH      2214            0.0000000000
     38123      2906  MEOH      LP1A          -28.4424575426      -32.9881213488       16.7170649742  MEOH      2214            0.0000000000
     38124      2906  MEOH      LP1B          -27.9250457253      -32.8698328703       16.3286812117  MEOH      2214            0.0000000000
     38125      2907  MEOH      C1            -25.0861406791       31.9585051207        6.3530569832  MEOH      2215            0.0000000000
     38126      2907  MEOH      DC1           -25.0923742545       31.9858285786        6.3569226994  MEOH      2215            0.0000000000
     38127      2907  MEOH      O1            -26.1441680046       32.8802324214        6.1371825509  MEOH      2215            0.0000000000
     38128      2907  MEOH      DO1           -26.1466976298       32.8986580266        6.1400207234  MEOH      2215            0.0000000000
     38129      2907  MEOH      HO1           -25.9186210659       33.7021323316        6.6003338394  MEOH      2215            0.0000000000
     38130      2907  MEOH      HO2           -26.3061969365       32.8746606181        5.1808271875  MEOH      2215            0.0000000000
     38131      2907  MEOH      H1A           -25.3645701463       30.9779512207        5.9111157175  MEOH      2215            0.0000000000
     38132      2907  MEOH      H1B           -24.8954514387       31.8037350699        7.4365720249  MEOH      2215            0.0000000000
     38133      2907  MEOH      H1C           -24.1598997958       32.3188866933        5.8565452027  MEOH      2215            0.0000000000
     38134      2907  MEOH      LP1A          -26.0846589227       33.0646643737        5.8457318275  MEOH      2215            0.0000000000
     38135      2907  MEOH      LP1B          -26.3876315879       32.8434047606        6.3859177655  MEOH      2215            0.0000000000
     38136      2908  MEOH      C1              1.2757400666       24.0561408376      -21.2678443330  MEOH      2216            0.0000000000
     38137      2908  MEOH      DC1             1.2730540460       24.0608852072      -21.2844796692  MEOH      2216            0.0000000000
     38138      2908  MEOH      O1             -0.1259964848       23.8068931850      -21.3532634592  MEOH      2216            0.0000000000
     38139      2908  MEOH      DO1            -0.1292974658       23.8158291355      -21.3614952954  MEOH      2216            0.0000000000
     38140      2908  MEOH      HO1            -0.5112466199       24.3621701585      -22.0490722096  MEOH      2216            0.0000000000
     38141      2908  MEOH      HO2            -0.2261444535       22.8425220517      -21.3825670677  MEOH      2216            0.0000000000
     38142      2908  MEOH      H1A             1.6966742851       23.4364647416      -20.4473951147  MEOH      2216            0.0000000000
     38143      2908  MEOH      H1B             1.4660151462       25.1292639133      -21.0521518209  MEOH      2216            0.0000000000
     38144      2908  MEOH      H1C             1.7965462297       23.7670599894      -22.2056685191  MEOH      2216            0.0000000000
     38145      2908  MEOH      LP1A           -0.1875404426       23.5445469836      -21.5766170172  MEOH      2216            0.0000000000
     38146      2908  MEOH      LP1B           -0.2988980851       24.0197218072      -21.1357571048  MEOH      2216            0.0000000000
     38147      2909  MEOH      C1            -21.6546028642      -10.5648920773       19.9372103185  MEOH      2217            0.0000000000
     38148      2909  MEOH      DC1           -21.6441518764      -10.5797345275       19.9257694566  MEOH      2217            0.0000000000
     38149      2909  MEOH      O1            -21.2099049934      -10.4966828477       18.5783942173  MEOH      2217            0.0000000000
     38150      2909  MEOH      DO1           -21.1901547711      -10.5290608676       18.5806262126  MEOH      2217            0.0000000000
     38151      2909  MEOH      HO1           -21.9946036732      -10.4607170690       18.0093121101  MEOH      2217            0.0000000000
     38152      2909  MEOH      HO2           -20.5905451233       -9.7505861690       18.5532327776  MEOH      2217            0.0000000000
     38153      2909  MEOH      H1A           -20.7801176474      -10.5297245016       20.6215785303  MEOH      2217            0.0000000000
     38154      2909  MEOH      H1B           -22.2119634710      -11.5082676911       20.1208202467  MEOH      2217            0.0000000000
     38155      2909  MEOH      H1C           -22.3078239685       -9.6974227050       20.1719869720  MEOH      2217            0.0000000000
     38156      2909  MEOH      LP1A          -21.1647559407      -10.1627364258       18.4838355038  MEOH      2217            0.0000000000
     38157      2909  MEOH      LP1B          -21.1697608713      -10.8194909578       18.4492300832  MEOH      2217            0.0000000000
     38158      2910  MEOH      C1             23.8556246220        3.7724372299       20.0321355176  MEOH      2218            0.0000000000
     38159      2910  MEOH      DC1            23.8563938866        3.7798621337       20.0273347745  MEOH      2218            0.0000000000
     38160      2910  MEOH      O1             24.4972839738        4.4376325483       21.1177790777  MEOH      2218            0.0000000000
     38161      2910  MEOH      DO1            24.5057027851        4.4449418244       21.1097592500  MEOH      2218            0.0000000000
     38162      2910  MEOH      HO1            23.8348868545        4.5172247361       21.8219062963  MEOH      2218            0.0000000000
     38163      2910  MEOH      HO2            25.3122274038        3.9375201354       21.2810420006  MEOH      2218            0.0000000000
     38164      2910  MEOH      H1A            24.5431487367        3.7169524041       19.1611860203  MEOH      2218            0.0000000000
     38165      2910  MEOH      H1B            22.9396615482        4.3241629077       19.7305871403  MEOH      2218            0.0000000000
     38166      2910  MEOH      H1C            23.5747128598        2.7416704062       20.3369786566  MEOH      2218            0.0000000000
     38167      2910  MEOH      LP1A           24.6507238537        4.2034356297       21.3277981402  MEOH      2218            0.0000000000
     38168      2910  MEOH      LP1B           24.4612944272        4.7841303339       21.0839554598  MEOH      2218            0.0000000000
     38169      2911  MEOH      C1              0.8697322551       14.7995717272        8.1432625891  MEOH      2219            0.0000000000
     38170      2911  MEOH      DC1             0.8665305717       14.8009203569        8.1477711817  MEOH      2219            0.0000000000
     38171      2911  MEOH      O1             -0.1499850169       15.6351369274        8.6943010638  MEOH      2219            0.0000000000
     38172      2911  MEOH      DO1            -0.1524588535       15.6388404894        8.6962900936  MEOH      2219            0.0000000000
     38173      2911  MEOH      HO1            -0.3217023700       16.3334305970        8.0433025218  MEOH      2219            0.0000000000
     38174      2911  MEOH      HO2            -0.8597971367       15.0386689021        8.9794197242  MEOH      2219            0.0000000000
     38175      2911  MEOH      H1A             1.2224732869       14.0809884549        8.9136734180  MEOH      2219            0.0000000000
     38176      2911  MEOH      H1B             1.7442028833       15.4133318174        7.8384336642  MEOH      2219            0.0000000000
     38177      2911  MEOH      H1C             0.4812598925       14.2346749902        7.2690189729  MEOH      2219            0.0000000000
     38178      2911  MEOH      LP1A           -0.4657266054       15.5138912596        8.6042636421  MEOH      2219            0.0000000000
     38179      2911  MEOH      LP1B           -0.0054493914       15.8897781861        8.8860490295  MEOH      2219            0.0000000000
     38180      2912  MEOH      C1            -22.1023038185       31.3641404061       13.9698863400  MEOH      2220            0.0000000000
     38181      2912  MEOH      DC1           -22.1057005770       31.3716523446       13.9751321380  MEOH      2220            0.0000000000
     38182      2912  MEOH      O1            -23.2323537409       31.7285942046       14.7693295814  MEOH      2220            0.0000000000
     38183      2912  MEOH      DO1           -23.2390087222       31.7340001612       14.7657604927  MEOH      2220            0.0000000000
     38184      2912  MEOH      HO1           -23.3748639972       31.0103940230       15.4055522830  MEOH      2220            0.0000000000
     38185      2912  MEOH      HO2           -23.0406356315       32.6212824651       15.0968228437  MEOH      2220            0.0000000000
     38186      2912  MEOH      H1A           -21.9450508300       32.1266558648       13.1773191987  MEOH      2220            0.0000000000
     38187      2912  MEOH      H1B           -22.2700943520       30.3765957182       13.4893420380  MEOH      2220            0.0000000000
     38188      2912  MEOH      H1C           -21.1879628461       31.3067483888       14.5983827553  MEOH      2220            0.0000000000
     38189      2912  MEOH      LP1A          -23.1276563534       31.9138785618       15.0471931523  MEOH      2220            0.0000000000
     38190      2912  MEOH      LP1B          -23.5270808775       31.6140579338       14.6192717339  MEOH      2220            0.0000000000
     38191      2913  MEOH      C1             -8.0949589436      -13.3216456654       29.4335822374  MEOH      2221            0.0000000000
     38192      2913  MEOH      DC1            -8.0925629258      -13.3312415088       29.4328764673  MEOH      2221            0.0000000000
     38193      2913  MEOH      O1             -6.6839660752      -13.0911938246       29.4978587080  MEOH      2221            0.0000000000
     38194      2913  MEOH      DO1            -6.6871303439      -13.1036328639       29.4997974795  MEOH      2221            0.0000000000
     38195      2913  MEOH      HO1            -6.3283495761      -13.4614725935       30.3208596436  MEOH      2221            0.0000000000
     38196      2913  MEOH      HO2            -6.3216706141      -13.3451673047       28.6346440937  MEOH      2221            0.0000000000
     38197      2913  MEOH      H1A            -8.5212185062      -12.7456276672       28.5845668948  MEOH      2221            0.0000000000
     38198      2913  MEOH      H1B            -8.5891313697      -12.9935220427       30.3729700708  MEOH      2221            0.0000000000
     38199      2913  MEOH      H1C            -8.3077827891      -14.3984023292       29.2614715172  MEOH      2221            0.0000000000
     38200      2913  MEOH      LP1A           -6.5124167280      -13.3557977992       29.3460181399  MEOH      2221            0.0000000000
     38201      2913  MEOH      LP1B           -6.6198764418      -12.7827170238       29.6502876497  MEOH      2221            0.0000000000
     38202      2914  MEOH      C1            -11.1104523177       23.2873303942       27.4284384205  MEOH      2222            0.0000000000
     38203      2914  MEOH      DC1           -11.1085913812       23.2870532675       27.4246148866  MEOH      2222            0.0000000000
     38204      2914  MEOH      O1            -10.5462734340       22.0362114709       27.0607325535  MEOH      2222            0.0000000000
     38205      2914  MEOH      DO1           -10.5439183991       22.0373836054       27.0612571052  MEOH      2222            0.0000000000
     38206      2914  MEOH      HO1           -10.4343258744       21.5376014235       27.8852055759  MEOH      2222            0.0000000000
     38207      2914  MEOH      HO2           -11.1369974772       21.6839187454       26.3767479469  MEOH      2222            0.0000000000
     38208      2914  MEOH      H1A           -11.3176528103       23.9079692592       26.5305540431  MEOH      2222            0.0000000000
     38209      2914  MEOH      H1B           -10.4584808150       23.8239425054       28.1504506106  MEOH      2222            0.0000000000
     38210      2914  MEOH      H1C           -12.0425240940       23.0824795686       27.9972963496  MEOH      2222            0.0000000000
     38211      2914  MEOH      LP1A          -10.8005727008       21.8066285509       26.9891534658  MEOH      2222            0.0000000000
     38212      2914  MEOH      LP1B          -10.1969671650       22.0581925638       27.0593318416  MEOH      2222            0.0000000000
     38213      2915  MEOH      C1            -36.6283039509       -9.6000417210       22.6283147572  MEOH      2223            0.0000000000
     38214      2915  MEOH      DC1           -36.6530201684       -9.6052615201       22.6167631181  MEOH      2223            0.0000000000
     38215      2915  MEOH      O1            -35.3955108035      -10.3157683993       22.6446889356  MEOH      2223            0.0000000000
     38216      2915  MEOH      DO1           -35.4175130183      -10.3252501414       22.6434329158  MEOH      2223            0.0000000000
     38217      2915  MEOH      HO1           -34.9394044349      -10.1690782007       21.8012738734  MEOH      2223            0.0000000000
     38218      2915  MEOH      HO2           -34.9490008741      -10.0091967745       23.4493893282  MEOH      2223            0.0000000000
     38219      2915  MEOH      H1A           -37.2270928028       -9.9182437701       23.5083831462  MEOH      2223            0.0000000000
     38220      2915  MEOH      H1B           -37.1654187612       -9.8136399989       21.6795237070  MEOH      2223            0.0000000000
     38221      2915  MEOH      H1C           -36.4603446180       -8.5037397171       22.6933730286  MEOH      2223            0.0000000000
     38222      2915  MEOH      LP1A          -35.1422072861      -10.1148368364       22.7787181679  MEOH      2223            0.0000000000
     38223      2915  MEOH      LP1B          -35.4441165337      -10.6406836202       22.5239926960  MEOH      2223            0.0000000000
     38224      2916  MEOH      C1              3.7067918172       29.4707255837       22.5968802347  MEOH      2224            0.0000000000
     38225      2916  MEOH      DC1             3.7033518870       29.4652899505       22.6003851275  MEOH      2224            0.0000000000
     38226      2916  MEOH      O1              3.3988267790       28.2077485121       22.0060458849  MEOH      2224            0.0000000000
     38227      2916  MEOH      DO1             3.3996888125       28.2020228904       22.0265335941  MEOH      2224            0.0000000000
     38228      2916  MEOH      HO1             2.6787817730       28.3336439241       21.3684052836  MEOH      2224            0.0000000000
     38229      2916  MEOH      HO2             4.2464714332       27.8517085771       21.6967982416  MEOH      2224            0.0000000000
     38230      2916  MEOH      H1A             4.5078790515       29.3468756752       23.3566443055  MEOH      2224            0.0000000000
     38231      2916  MEOH      H1B             2.8078834273       29.9041709978       23.0851524758  MEOH      2224            0.0000000000
     38232      2916  MEOH      H1C             4.0750111217       30.1715049915       21.8173651508  MEOH      2224            0.0000000000
     38233      2916  MEOH      LP1A            3.5973221511       28.1567310059       21.7223263027  MEOH      2224            0.0000000000
     38234      2916  MEOH      LP1B            3.1568547612       28.0420432409       22.1970728612  MEOH      2224            0.0000000000
     38235      2917  MEOH      C1            -27.1042951707      -27.1008480354      -20.5206404438  MEOH      2225            0.0000000000
     38236      2917  MEOH      DC1           -27.0876171941      -27.0944778202      -20.5144548737  MEOH      2225            0.0000000000
     38237      2917  MEOH      O1            -25.8299024370      -26.9132592975      -21.1217585041  MEOH      2225            0.0000000000
     38238      2917  MEOH      DO1           -25.8199010949      -26.9006842367      -21.1250136207  MEOH      2225            0.0000000000
     38239      2917  MEOH      HO1           -25.9289267483      -27.2292015685      -22.0335011581  MEOH      2225            0.0000000000
     38240      2917  MEOH      HO2           -25.5587837943      -26.0049241188      -20.9160356678  MEOH      2225            0.0000000000
     38241      2917  MEOH      H1A           -27.0452439919      -27.0051176789      -19.4153487823  MEOH      2225            0.0000000000
     38242      2917  MEOH      H1B           -27.5002470335      -28.1095420638      -20.7657516041  MEOH      2225            0.0000000000
     38243      2917  MEOH      H1C           -27.8160300389      -26.3271809516      -20.8800757248  MEOH      2225            0.0000000000
     38244      2917  MEOH      LP1A          -25.8097968366      -26.5933851196      -21.2623866492  MEOH      2225            0.0000000000
     38245      2917  MEOH      LP1B          -25.6313474441      -27.1972501785      -21.0725132576  MEOH      2225            0.0000000000
     38246      2918  MEOH      C1            -16.7567359471      -23.9714605752       -3.3345119728  MEOH      2226            0.0000000000
     38247      2918  MEOH      DC1           -16.7553529781      -23.9675566699       -3.3298614219  MEOH      2226            0.0000000000
     38248      2918  MEOH      O1            -16.0841301370      -24.8143394307       -2.3928934036  MEOH      2226            0.0000000000
     38249      2918  MEOH      DO1           -16.0734418088      -24.8183339630       -2.3927546507  MEOH      2226            0.0000000000
     38250      2918  MEOH      HO1           -16.2394428612      -25.7306939398       -2.6705125156  MEOH      2226            0.0000000000
     38251      2918  MEOH      HO2           -15.1880410732      -24.4568622981       -2.2922231938  MEOH      2226            0.0000000000
     38252      2918  MEOH      H1A           -16.6645901539      -22.9103738513       -3.0184026283  MEOH      2226            0.0000000000
     38253      2918  MEOH      H1B           -17.8356523289      -24.2340093813       -3.3709614652  MEOH      2226            0.0000000000
     38254      2918  MEOH      H1C           -16.3029797738      -24.0769111655       -4.3431281085  MEOH      2226            0.0000000000
     38255      2918  MEOH      LP1A          -15.7544603195      -24.8701567059       -2.4963450503  MEOH      2226            0.0000000000
     38256      2918  MEOH      LP1B          -16.2977432636      -24.8902082583       -2.1262225331  MEOH      2226            0.0000000000
     38257      2919  MEOH      C1             36.1102717784      -15.4063089877      -18.8171553048  MEOH      2227            0.0000000000
     38258      2919  MEOH      DC1            36.0972014130      -15.4034857534      -18.7999328036  MEOH      2227            0.0000000000
     38259      2919  MEOH      O1             35.0909782474      -14.8385175753      -18.0023900801  MEOH      2227            0.0000000000
     38260      2919  MEOH      DO1            35.0826823550      -14.8354686601      -17.9761889847  MEOH      2227            0.0000000000
     38261      2919  MEOH      HO1            34.2641944947      -15.1002447498      -18.4369329577  MEOH      2227            0.0000000000
     38262      2919  MEOH      HO2            35.3062151748      -15.0894509320      -17.0904660060  MEOH      2227            0.0000000000
     38263      2919  MEOH      H1A            37.1167634669      -15.0431096934      -18.5181874901  MEOH      2227            0.0000000000
     38264      2919  MEOH      H1B            35.9341745304      -15.0985299803      -19.8700479117  MEOH      2227            0.0000000000
     38265      2919  MEOH      H1C            36.0821519799      -16.5151774728      -18.7543782257  MEOH      2227            0.0000000000
     38266      2919  MEOH      LP1A           35.0010104967      -15.0630256081      -17.7494040191  MEOH      2227            0.0000000000
     38267      2919  MEOH      LP1B           35.0174709130      -14.5141266696      -18.1113268146  MEOH      2227            0.0000000000
     38268      2920  MEOH      C1             -0.9055641399       33.4095915100       30.7944321572  MEOH      2228            0.0000000000
     38269      2920  MEOH      DC1            -0.9024973105       33.4001858608       30.8004826043  MEOH      2228            0.0000000000
     38270      2920  MEOH      O1             -2.2296710260       33.5843891767       30.2945581250  MEOH      2228            0.0000000000
     38271      2920  MEOH      DO1            -2.2244287310       33.5747860838       30.3047645398  MEOH      2228            0.0000000000
     38272      2920  MEOH      HO1            -2.5325820910       34.4701088122       30.5488131428  MEOH      2228            0.0000000000
     38273      2920  MEOH      HO2            -2.1860847434       33.3527966498       29.3536196897  MEOH      2228            0.0000000000
     38274      2920  MEOH      H1A            -0.5648023149       32.3799152787       30.5536641395  MEOH      2228            0.0000000000
     38275      2920  MEOH      H1B            -0.8877600379       33.5557787977       31.8956284571  MEOH      2228            0.0000000000
     38276      2920  MEOH      H1C            -0.2162402880       34.1375497905       30.3156520707  MEOH      2228            0.0000000000
     38277      2920  MEOH      LP1A           -2.2188528689       33.7158186040       29.9703525218  MEOH      2228            0.0000000000
     38278      2920  MEOH      LP1B           -2.4624894570       33.4717385584       30.5303661325  MEOH      2228            0.0000000000
     38279      2921  MEOH      C1            -32.8877458406       -2.2347513598      -36.1425882871  MEOH      2229            0.0000000000
     38280      2921  MEOH      DC1           -32.8930036768       -2.2560331071      -36.1377395935  MEOH      2229            0.0000000000
     38281      2921  MEOH      O1            -32.7784973268       -3.6566146772      -36.2848057732  MEOH      2229            0.0000000000
     38282      2921  MEOH      DO1           -32.7678095560       -3.6707502311      -36.2970218429  MEOH      2229            0.0000000000
     38283      2921  MEOH      HO1           -33.5000771835       -3.9174825933      -36.8782452749  MEOH      2229            0.0000000000
     38284      2921  MEOH      HO2           -31.8616940061       -3.8219423291      -36.5550620194  MEOH      2229            0.0000000000
     38285      2921  MEOH      H1A           -31.9725038183       -1.8233887642      -35.6656880299  MEOH      2229            0.0000000000
     38286      2921  MEOH      H1B           -33.7760520283       -1.9713100592      -35.5295370657  MEOH      2229            0.0000000000
     38287      2921  MEOH      H1C           -33.0166532729       -1.7559240915      -37.1367856125  MEOH      2229            0.0000000000
     38288      2921  MEOH      LP1A          -32.5665787960       -3.7342296418      -36.5523248446  MEOH      2229            0.0000000000
     38289      2921  MEOH      LP1B          -32.9630474992       -3.8165290928      -36.0340696299  MEOH      2229            0.0000000000
     38290      2922  MEOH      C1            -18.5653719304      -20.1097870324      -32.7285204631  MEOH      2230            0.0000000000
     38291      2922  MEOH      DC1           -18.5639105126      -20.1061594911      -32.7299928237  MEOH      2230            0.0000000000
     38292      2922  MEOH      O1            -19.9495198476      -20.1522696809      -33.0873647797  MEOH      2230            0.0000000000
     38293      2922  MEOH      DO1           -19.9512141428      -20.1499441049      -33.0828095960  MEOH      2230            0.0000000000
     38294      2922  MEOH      HO1           -20.4436089371      -20.5623642296      -32.3603170275  MEOH      2230            0.0000000000
     38295      2922  MEOH      HO2           -20.1706114683      -19.2680063334      -33.4191731995  MEOH      2230            0.0000000000
     38296      2922  MEOH      H1A           -17.9435645218      -19.7518618369      -33.5767928858  MEOH      2230            0.0000000000
     38297      2922  MEOH      H1B           -18.2221508336      -21.1291357694      -32.4502248795  MEOH      2230            0.0000000000
     38298      2922  MEOH      H1C           -18.4189021727      -19.4047236447      -31.8824984602  MEOH      2230            0.0000000000
     38299      2922  MEOH      LP1A          -20.1086152717      -19.8575257108      -32.9858037729  MEOH      2230            0.0000000000
     38300      2922  MEOH      LP1B          -20.0196259898      -20.4491195382      -33.2590193488  MEOH      2230            0.0000000000
     38301      2923  MEOH      C1            -20.6006811505       17.1549851148       14.9442940119  MEOH      2231            0.0000000000
     38302      2923  MEOH      DC1           -20.5930464402       17.1804035102       14.9541507586  MEOH      2231            0.0000000000
     38303      2923  MEOH      O1            -19.6666667305       18.2171327638       15.1726422670  MEOH      2231            0.0000000000
     38304      2923  MEOH      DO1           -19.6653696305       18.2429171967       15.1827462949  MEOH      2231            0.0000000000
     38305      2923  MEOH      HO1           -18.7923446753       17.8032820932       15.1006105634  MEOH      2231            0.0000000000
     38306      2923  MEOH      HO2           -19.9225300455       18.9282074952       14.5645249334  MEOH      2231            0.0000000000
     38307      2923  MEOH      H1A           -21.6421238832       17.5286901531       15.0446064294  MEOH      2231            0.0000000000
     38308      2923  MEOH      H1B           -20.4416336638       16.3293988944       15.6705393498  MEOH      2231            0.0000000000
     38309      2923  MEOH      H1C           -20.4684068141       16.7423344847       13.9212867014  MEOH      2231            0.0000000000
     38310      2923  MEOH      LP1A          -19.5885707676       18.3749581235       14.8701655300  MEOH      2231            0.0000000000
     38311      2923  MEOH      LP1B          -19.5973882243       18.2441555982       15.5146514116  MEOH      2231            0.0000000000
     38312      2924  MEOH      C1              5.8120963996      -19.3540989125      -20.5444888576  MEOH      2232            0.0000000000
     38313      2924  MEOH      DC1             5.8181073108      -19.3539009192      -20.5489817301  MEOH      2232            0.0000000000
     38314      2924  MEOH      O1              7.1018836394      -19.6640199677      -21.0685268182  MEOH      2232            0.0000000000
     38315      2924  MEOH      DO1             7.1138215721      -19.6627131394      -21.0624296133  MEOH      2232            0.0000000000
     38316      2924  MEOH      HO1             7.4660288191      -20.3628335596      -20.5028786479  MEOH      2232            0.0000000000
     38317      2924  MEOH      HO2             6.9746760325      -19.8372221884      -22.0144228037  MEOH      2232            0.0000000000
     38318      2924  MEOH      H1A             5.3672505421      -18.5121298490      -21.1167835890  MEOH      2232            0.0000000000
     38319      2924  MEOH      H1B             5.8848764372      -19.0314722060      -19.4838588210  MEOH      2232            0.0000000000
     38320      2924  MEOH      H1C             5.1442401915      -20.2375449615      -20.6328753130  MEOH      2232            0.0000000000
     38321      2924  MEOH      LP1A            7.0752657221      -19.9140981265      -21.3119449789  MEOH      2232            0.0000000000
     38322      2924  MEOH      LP1B            7.3435642239      -19.4580784829      -20.9212902741  MEOH      2232            0.0000000000
     38323      2925  MEOH      C1             31.0813682826       36.9243642487       36.4242962642  MEOH      2233            0.0000000000
     38324      2925  MEOH      DC1            31.0846324085       36.9333340838       36.4346977441  MEOH      2233            0.0000000000
     38325      2925  MEOH      O1             30.0815091758       35.9250919032       36.6053438184  MEOH      2233            0.0000000000
     38326      2925  MEOH      DO1            30.0846670622       35.9282608529       36.6125518425  MEOH      2233            0.0000000000
     38327      2925  MEOH      HO1            29.2680222376       36.3324540716       36.9417885634  MEOH      2233            0.0000000000
     38328      2925  MEOH      HO2            30.0857425575       35.3726639134       35.8080324648  MEOH      2233            0.0000000000
     38329      2925  MEOH      H1A            32.0442956352       36.4227626860       36.1887378088  MEOH      2233            0.0000000000
     38330      2925  MEOH      H1B            31.2031180837       37.5198311721       37.3543054745  MEOH      2233            0.0000000000
     38331      2925  MEOH      H1C            30.8047339587       37.5821902015       35.5727920263  MEOH      2233            0.0000000000
     38332      2925  MEOH      LP1A           29.8975768206       35.8849500800       36.3102887003  MEOH      2233            0.0000000000
     38333      2925  MEOH      LP1B           30.1048097844       35.7893501109       36.9271065376  MEOH      2233            0.0000000000
     38334      2926  MEOH      C1             -8.5192474548      -12.6925077557        8.4382362450  MEOH      2234            0.0000000000
     38335      2926  MEOH      DC1            -8.5270162769      -12.7041790573        8.4337285662  MEOH      2234            0.0000000000
     38336      2926  MEOH      O1             -8.4047507721      -12.8610008510        7.0262857550  MEOH      2234            0.0000000000
     38337      2926  MEOH      DO1            -8.4127003186      -12.8686141796        7.0241681650  MEOH      2234            0.0000000000
     38338      2926  MEOH      HO1            -9.0751550202      -12.2841011775        6.6279832168  MEOH      2234            0.0000000000
     38339      2926  MEOH      HO2            -7.4684214919      -12.7106696340        6.8223543833  MEOH      2234            0.0000000000
     38340      2926  MEOH      H1A            -7.7702591505      -13.3354990024        8.9480399103  MEOH      2234            0.0000000000
     38341      2926  MEOH      H1B            -9.5362365865      -12.9787118239        8.7819531889  MEOH      2234            0.0000000000
     38342      2926  MEOH      H1C            -8.3213851118      -11.6333156518        8.7089456488  MEOH      2234            0.0000000000
     38343      2926  MEOH      LP1A           -8.1725783658      -12.6332343459        6.8969861305  MEOH      2234            0.0000000000
     38344      2926  MEOH      LP1B           -8.6091717552      -13.1245548225        6.9202132998  MEOH      2234            0.0000000000
     38345      2927  MEOH      C1            -23.6257545128       31.4073539068        1.8090709717  MEOH      2235            0.0000000000
     38346      2927  MEOH      DC1           -23.6381887821       31.4010457869        1.8230502172  MEOH      2235            0.0000000000
     38347      2927  MEOH      O1            -22.9996643584       32.6677571570        1.5830231475  MEOH      2235            0.0000000000
     38348      2927  MEOH      DO1           -23.0125516121       32.6682019568        1.5974248943  MEOH      2235            0.0000000000
     38349      2927  MEOH      HO1           -22.0975120252       32.4847634486        1.2771890892  MEOH      2235            0.0000000000
     38350      2927  MEOH      HO2           -23.6029586838       33.1681569215        1.0115898332  MEOH      2235            0.0000000000
     38351      2927  MEOH      H1A           -24.6449701454       31.5742192807        2.2185541126  MEOH      2235            0.0000000000
     38352      2927  MEOH      H1B           -23.0315732463       30.8118569653        2.5347796018  MEOH      2235            0.0000000000
     38353      2927  MEOH      H1C           -23.6907883137       30.8464988361        0.8522359836  MEOH      2235            0.0000000000
     38354      2927  MEOH      LP1A          -23.0580317201       32.7731934543        1.2544254629  MEOH      2235            0.0000000000
     38355      2927  MEOH      LP1B          -22.8457601831       32.7793849023        1.8768815339  MEOH      2235            0.0000000000
     38356      2928  MEOH      C1             21.8501448864      -25.9443460280       29.8186970300  MEOH      2236            0.0000000000
     38357      2928  MEOH      DC1            21.8546778386      -25.9382213153       29.8190965359  MEOH      2236            0.0000000000
     38358      2928  MEOH      O1             22.2986437579      -26.2440741162       31.1381993614  MEOH      2236            0.0000000000
     38359      2928  MEOH      DO1            22.3037652095      -26.2348062046       31.1411496126  MEOH      2236            0.0000000000
     38360      2928  MEOH      HO1            22.1498728834      -25.4489456164       31.6734917080  MEOH      2236            0.0000000000
     38361      2928  MEOH      HO2            21.8557579125      -27.0739827970       31.3748503902  MEOH      2236            0.0000000000
     38362      2928  MEOH      H1A            22.0497039278      -26.8054454667       29.1456406083  MEOH      2236            0.0000000000
     38363      2928  MEOH      H1B            22.3905834464      -25.0525966365       29.4352518768  MEOH      2236            0.0000000000
     38364      2928  MEOH      H1C            20.7572850931      -25.7444369940       29.8225509553  MEOH      2236            0.0000000000
     38365      2928  MEOH      LP1A           22.0371682471      -26.3829731713       31.3248477200  MEOH      2236            0.0000000000
     38366      2928  MEOH      LP1B           22.6383798147      -26.1660798680       31.1697637239  MEOH      2236            0.0000000000
     38367      2929  MEOH      C1             -6.3654710288      -10.1923374991      -13.7909093007  MEOH      2237            0.0000000000
     38368      2929  MEOH      DC1            -6.3611887746      -10.2082296354      -13.7743595104  MEOH      2237            0.0000000000
     38369      2929  MEOH      O1             -6.2750090606       -9.4079129314      -14.9787511615  MEOH      2237            0.0000000000
     38370      2929  MEOH      DO1            -6.2673430446       -9.4263150611      -14.9666514354  MEOH      2237            0.0000000000
     38371      2929  MEOH      HO1            -6.7631099427       -9.8495717701      -15.6912081772  MEOH      2237            0.0000000000
     38372      2929  MEOH      HO2            -6.5625545496       -8.5185452090      -14.7194392901  MEOH      2237            0.0000000000
     38373      2929  MEOH      H1A            -5.8394168521       -9.6537324514      -12.9739070927  MEOH      2237            0.0000000000
     38374      2929  MEOH      H1B            -5.8810215207      -11.1794424256      -13.9498229211  MEOH      2237            0.0000000000
     38375      2929  MEOH      H1C            -7.4283470936      -10.3249880678      -13.4959189663  MEOH      2237            0.0000000000
     38376      2929  MEOH      LP1A           -6.5369705200       -9.1760412806      -14.9893214648  MEOH      2237            0.0000000000
     38377      2929  MEOH      LP1B           -5.9914914972       -9.5003800779      -15.1619658391  MEOH      2237            0.0000000000
     38378      2930  MEOH      C1            -17.8350811697        2.8295954214      -12.8815301461  MEOH      2238            0.0000000000
     38379      2930  MEOH      DC1           -17.8286772974        2.8242068150      -12.8696332359  MEOH      2238            0.0000000000
     38380      2930  MEOH      O1            -19.0729081483        3.0162279207      -13.5687283133  MEOH      2238            0.0000000000
     38381      2930  MEOH      DO1           -19.0677570947        3.0040382648      -13.5541201040  MEOH      2238            0.0000000000
     38382      2930  MEOH      HO1           -18.9969743671        3.7840292066      -14.1566188200  MEOH      2238            0.0000000000
     38383      2930  MEOH      HO2           -19.3371036177        2.1465026001      -13.9073706332  MEOH      2238            0.0000000000
     38384      2930  MEOH      H1A           -17.9812712615        2.0861344509      -12.0689938429  MEOH      2238            0.0000000000
     38385      2930  MEOH      H1B           -17.5045730649        3.7842467984      -12.4192248989  MEOH      2238            0.0000000000
     38386      2930  MEOH      H1C           -17.0556210701        2.4607962533      -13.5820657459  MEOH      2238            0.0000000000
     38387      2930  MEOH      LP1A          -19.0738767911        2.8313922507      -13.8659400844  MEOH      2238            0.0000000000
     38388      2930  MEOH      LP1B          -19.2838616265        3.2232562069      -13.3812772030  MEOH      2238            0.0000000000
     38389      2931  MEOH      C1            -27.3548604219       29.6319488769      -19.5361677870  MEOH      2239            0.0000000000
     38390      2931  MEOH      DC1           -27.3500500384       29.6259472707      -19.5343811955  MEOH      2239            0.0000000000
     38391      2931  MEOH      O1            -27.8903054357       28.5581737724      -20.3130152931  MEOH      2239            0.0000000000
     38392      2931  MEOH      DO1           -27.8873840861       28.5575568107      -20.3072738787  MEOH      2239            0.0000000000
     38393      2931  MEOH      HO1           -27.4856328029       27.7305333434      -20.0094508344  MEOH      2239            0.0000000000
     38394      2931  MEOH      HO2           -28.8544288438       28.6530346640      -20.2643586823  MEOH      2239            0.0000000000
     38395      2931  MEOH      H1A           -27.8096433641       30.5912173312      -19.8637307713  MEOH      2239            0.0000000000
     38396      2931  MEOH      H1B           -26.2549250246       29.7035083239      -19.6752446259  MEOH      2239            0.0000000000
     38397      2931  MEOH      H1C           -27.5934276568       29.4778427977      -18.4620830640  MEOH      2239            0.0000000000
     38398      2931  MEOH      LP1A          -28.1804721277       28.4340443906      -20.1617037356  MEOH      2239            0.0000000000
     38399      2931  MEOH      LP1B          -27.6962925573       28.5099146277      -20.6002957449  MEOH      2239            0.0000000000
     38400      2932  MEOH      C1            -17.5916240957        7.0215094659       29.3117118035  MEOH      2240            0.0000000000
     38401      2932  MEOH      DC1           -17.5964922322        7.0317899599       29.3047238484  MEOH      2240            0.0000000000
     38402      2932  MEOH      O1            -16.2273755440        7.1210873308       29.7193588563  MEOH      2240            0.0000000000
     38403      2932  MEOH      DO1           -16.2374489144        7.1335742279       29.7128448763  MEOH      2240            0.0000000000
     38404      2932  MEOH      HO1           -16.1242295006        7.8694363444       30.3278279579  MEOH      2240            0.0000000000
     38405      2932  MEOH      HO2           -15.9835368836        6.2339282948       30.0265909403  MEOH      2240            0.0000000000
     38406      2932  MEOH      H1A           -17.7095214276        6.1303964525       28.6587655441  MEOH      2240            0.0000000000
     38407      2932  MEOH      H1B           -17.8870660440        7.9311480092       28.7463864313  MEOH      2240            0.0000000000
     38408      2932  MEOH      H1C           -18.2482603589        6.8914689538       30.1984131529  MEOH      2240            0.0000000000
     38409      2932  MEOH      LP1A          -16.1732763890        6.9262563903       30.0050408229  MEOH      2240            0.0000000000
     38410      2932  MEOH      LP1B          -16.0500405533        7.3235069665       29.4955763901  MEOH      2240            0.0000000000
     38411      2933  MEOH      C1             28.3844289523       24.2813926146       -5.6623301187  MEOH      2241            0.0000000000
     38412      2933  MEOH      DC1            28.3855980018       24.2861399472       -5.6605985387  MEOH      2241            0.0000000000
     38413      2933  MEOH      O1             29.3992539086       23.4293916260       -5.1384922711  MEOH      2241            0.0000000000
     38414      2933  MEOH      DO1            29.3948599602       23.4360733992       -5.1302237374  MEOH      2241            0.0000000000
     38415      2933  MEOH      HO1            29.2037825972       22.5250881848       -5.4299133643  MEOH      2241            0.0000000000
     38416      2933  MEOH      HO2            30.2396040741       23.8425421648       -5.3915105145  MEOH      2241            0.0000000000
     38417      2933  MEOH      H1A            28.5517137522       25.3259238887       -5.3227845206  MEOH      2241            0.0000000000
     38418      2933  MEOH      H1B            27.3897435263       23.9443034370       -5.2999866473  MEOH      2241            0.0000000000
     38419      2933  MEOH      H1C            28.4215155749       24.2569115826       -6.7724410428  MEOH      2241            0.0000000000
     38420      2933  MEOH      LP1A           29.6673174897       23.4106141665       -5.3627450826  MEOH      2241            0.0000000000
     38421      2933  MEOH      LP1B           29.3067416978       23.3140546260       -4.8212559754  MEOH      2241            0.0000000000
     38422      2934  MEOH      C1            -30.3983033155       33.8152945700       23.7077241095  MEOH      2242            0.0000000000
     38423      2934  MEOH      DC1           -30.3957062174       33.8202120421       23.7065010331  MEOH      2242            0.0000000000
     38424      2934  MEOH      O1            -29.3380572248       34.6969543370       23.3239073150  MEOH      2242            0.0000000000
     38425      2934  MEOH      DO1           -29.3401468189       34.7059863259       23.3218627988  MEOH      2242            0.0000000000
     38426      2934  MEOH      HO1           -29.3158134276       34.7158795585       22.3543470789  MEOH      2242            0.0000000000
     38427      2934  MEOH      HO2           -29.4513026787       35.5073698302       23.8447740883  MEOH      2242            0.0000000000
     38428      2934  MEOH      H1A           -30.3572387027       33.6591934987       24.8069361696  MEOH      2242            0.0000000000
     38429      2934  MEOH      H1B           -30.2885911388       32.8348735978       23.1967848206  MEOH      2242            0.0000000000
     38430      2934  MEOH      H1C           -31.3901126607       34.2456257335       23.4518915218  MEOH      2242            0.0000000000
     38431      2934  MEOH      LP1A          -29.4584327386       35.0245360145       23.2974501752  MEOH      2242            0.0000000000
     38432      2934  MEOH      LP1B          -29.0379705378       34.5188082352       23.2972249862  MEOH      2242            0.0000000000
     38433      2935  MEOH      C1            -13.3401070624       36.8169243134       30.1017624697  MEOH      2243            0.0000000000
     38434      2935  MEOH      DC1           -13.3360887338       36.8176693705       30.1003399431  MEOH      2243            0.0000000000
     38435      2935  MEOH      O1            -12.0471075485       36.5375249140       30.6433731452  MEOH      2243            0.0000000000
     38436      2935  MEOH      DO1           -12.0446975681       36.5432058444       30.6432981305  MEOH      2243            0.0000000000
     38437      2935  MEOH      HO1           -11.5860738907       35.9740616071       30.0023918123  MEOH      2243            0.0000000000
     38438      2935  MEOH      HO2           -11.6628000494       37.3871842133       30.9103690650  MEOH      2243            0.0000000000
     38439      2935  MEOH      H1A           -13.9629309393       37.3469033712       30.8537821625  MEOH      2243            0.0000000000
     38440      2935  MEOH      H1B           -13.8519564863       35.8707378106       29.8241615515  MEOH      2243            0.0000000000
     38441      2935  MEOH      H1C           -13.2579018485       37.4735358655       29.2093362416  MEOH      2243            0.0000000000
     38442      2935  MEOH      LP1A          -11.8199592186       36.7848014268       30.5445907459  MEOH      2243            0.0000000000
     38443      2935  MEOH      LP1B          -12.0602151442       36.2497388357       30.8421377398  MEOH      2243            0.0000000000
     38444      2936  MEOH      C1             -4.8542634380       -6.6898422435       28.6384113501  MEOH      2244            0.0000000000
     38445      2936  MEOH      DC1            -4.8540019238       -6.6996463549       28.6290634692  MEOH      2244            0.0000000000
     38446      2936  MEOH      O1             -6.0211836274       -7.4305754601       28.9802392536  MEOH      2244            0.0000000000
     38447      2936  MEOH      DO1            -6.0257850145       -7.4321335401       28.9695643242  MEOH      2244            0.0000000000
     38448      2936  MEOH      HO1            -6.2976769283       -7.1145070560       29.8546260206  MEOH      2244            0.0000000000
     38449      2936  MEOH      HO2            -6.6112179289       -7.3660697986       28.2130374918  MEOH      2244            0.0000000000
     38450      2936  MEOH      H1A            -4.3843985692       -7.1125197765       27.7246872620  MEOH      2244            0.0000000000
     38451      2936  MEOH      H1B            -4.1316477555       -6.7342208584       29.4811320119  MEOH      2244            0.0000000000
     38452      2936  MEOH      H1C            -5.1246159768       -5.6299059804       28.4440775517  MEOH      2244            0.0000000000
     38453      2936  MEOH      LP1A           -6.3064303562       -7.2660116156       28.8616937147  MEOH      2244            0.0000000000
     38454      2936  MEOH      LP1B           -5.9314953725       -7.7253363667       29.1462875143  MEOH      2244            0.0000000000
     38455      2937  MEOH      C1             21.3457201226       33.3894344799       35.6477157499  MEOH      2245            0.0000000000
     38456      2937  MEOH      DC1            21.3397287759       33.3953890854       35.6710391127  MEOH      2245            0.0000000000
     38457      2937  MEOH      O1             20.4880857136       32.3813661025       36.1908478726  MEOH      2245            0.0000000000
     38458      2937  MEOH      DO1            20.4851106371       32.3864691938       36.2141064116  MEOH      2245            0.0000000000
     38459      2937  MEOH      HO1            20.9478903021       31.5357327398       36.0709147401  MEOH      2245            0.0000000000
     38460      2937  MEOH      HO2            20.2574607824       32.6778637783       37.0851639633  MEOH      2245            0.0000000000
     38461      2937  MEOH      H1A            20.8490166583       34.3804560490       35.7217624828  MEOH      2245            0.0000000000
     38462      2937  MEOH      H1B            21.5593245217       33.1838613997       34.5769992284  MEOH      2245            0.0000000000
     38463      2937  MEOH      H1C            22.3148705504       33.4197889784       36.1900690061  MEOH      2245            0.0000000000
     38464      2937  MEOH      LP1A           20.5558245419       32.3373306082       36.5313949712  MEOH      2245            0.0000000000
     38465      2937  MEOH      LP1B           20.2691178566       32.2647506144       35.9439594250  MEOH      2245            0.0000000000
     38466      2938  MEOH      C1            -32.8790297249        1.9376363482       18.1320258011  MEOH      2246            0.0000000000
     38467      2938  MEOH      DC1           -32.8901354499        1.9406549841       18.1195275339  MEOH      2246            0.0000000000
     38468      2938  MEOH      O1            -32.6361209813        3.3143157639       18.4046348807  MEOH      2246            0.0000000000
     38469      2938  MEOH      DO1           -32.6405827837        3.3137957412       18.4062437662  MEOH      2246            0.0000000000
     38470      2938  MEOH      HO1           -32.0005416289        3.6456920876       17.7510841031  MEOH      2246            0.0000000000
     38471      2938  MEOH      HO2           -33.5097669835        3.7218649341       18.5120887688  MEOH      2246            0.0000000000
     38472      2938  MEOH      H1A           -33.5664952449        1.5378991963       18.9078623626  MEOH      2246            0.0000000000
     38473      2938  MEOH      H1B           -31.9258702136        1.3671584526       18.1510761835  MEOH      2246            0.0000000000
     38474      2938  MEOH      H1C           -33.3667737123        1.8195044912       17.1408287132  MEOH      2246            0.0000000000
     38475      2938  MEOH      LP1A          -32.8674698024        3.5129953839       18.2328672133  MEOH      2246            0.0000000000
     38476      2938  MEOH      LP1B          -32.3712151703        3.3465767765       18.6310948956  MEOH      2246            0.0000000000
     38477      2939  MEOH      C1             36.5811654396        4.8548056898       26.7223048431  MEOH      2247            0.0000000000
     38478      2939  MEOH      DC1            36.5849408504        4.8592813494       26.7242718923  MEOH      2247            0.0000000000
     38479      2939  MEOH      O1             36.9790482362        6.1247182744       27.2340110957  MEOH      2247            0.0000000000
     38480      2939  MEOH      DO1            36.9783627379        6.1345411163       27.2340865185  MEOH      2247            0.0000000000
     38481      2939  MEOH      HO1            37.5602242908        6.5184009191       26.5645722489  MEOH      2247            0.0000000000
     38482      2939  MEOH      HO2            36.1594230480        6.5654837480       27.5075807363  MEOH      2247            0.0000000000
     38483      2939  MEOH      H1A            36.0136391090        4.3058903074       27.5039228875  MEOH      2247            0.0000000000
     38484      2939  MEOH      H1B            37.4814181288        4.2690413953       26.4381459318  MEOH      2247            0.0000000000
     38485      2939  MEOH      H1C            35.9302013621        4.9806416314       25.8308273690  MEOH      2247            0.0000000000
     38486      2939  MEOH      LP1A           36.7488033936        6.3700819125       27.1376575926  MEOH      2247            0.0000000000
     38487      2939  MEOH      LP1B           37.2698760698        6.0907356994       27.4257514299  MEOH      2247            0.0000000000
     38488      2940  MEOH      C1             17.2267362240       10.0316263632       11.0922041617  MEOH      2248            0.0000000000
     38489      2940  MEOH      DC1            17.2225670934       10.0220799783       11.0851905575  MEOH      2248            0.0000000000
     38490      2940  MEOH      O1             16.9985499641        8.6725066446       10.7132789068  MEOH      2248            0.0000000000
     38491      2940  MEOH      DO1            17.0052845614        8.6633215212       10.6985213875  MEOH      2248            0.0000000000
     38492      2940  MEOH      HO1            17.3180204977        8.1262422683       11.4484209407  MEOH      2248            0.0000000000
     38493      2940  MEOH      HO2            16.0697515711        8.6256839466       10.4375232539  MEOH      2248            0.0000000000
     38494      2940  MEOH      H1A            16.8742659122       10.7225473516       10.2967710296  MEOH      2248            0.0000000000
     38495      2940  MEOH      H1B            18.3184012137       10.1965773874       11.2162191197  MEOH      2248            0.0000000000
     38496      2940  MEOH      H1C            16.6959296190       10.2668439330       12.0394306630  MEOH      2248            0.0000000000
     38497      2940  MEOH      LP1A           16.6790117877        8.5719850351       10.8147222892  MEOH      2248            0.0000000000
     38498      2940  MEOH      LP1B           17.2753859685        8.5488973130       10.5384002066  MEOH      2248            0.0000000000
     38499      2941  MEOH      C1             34.3952636930       -6.2066293347      -34.4951899539  MEOH      2249            0.0000000000
     38500      2941  MEOH      DC1            34.4041451360       -6.2127378217      -34.4915169592  MEOH      2249            0.0000000000
     38501      2941  MEOH      O1             34.9617725136       -6.0701761124      -35.7928665050  MEOH      2249            0.0000000000
     38502      2941  MEOH      DO1            34.9713405143       -6.0786407517      -35.7859930535  MEOH      2249            0.0000000000
     38503      2941  MEOH      HO1            35.0495963397       -5.1199234272      -35.9666675690  MEOH      2249            0.0000000000
     38504      2941  MEOH      HO2            35.7208861491       -6.6734600313      -35.8192293997  MEOH      2249            0.0000000000
     38505      2941  MEOH      H1A            34.1268185531       -7.2733903541      -34.3393723151  MEOH      2249            0.0000000000
     38506      2941  MEOH      H1B            33.4783725967       -5.5849644751      -34.4105464598  MEOH      2249            0.0000000000
     38507      2941  MEOH      H1C            35.1208576371       -5.8929011148      -33.7145434064  MEOH      2249            0.0000000000
     38508      2941  MEOH      LP1A           35.3111074181       -6.0682722495      -35.7713839582  MEOH      2249            0.0000000000
     38509      2941  MEOH      LP1B           34.7081000327       -6.0605404418      -36.0338175919  MEOH      2249            0.0000000000
     38510      2942  MEOH      C1             31.7420494971      -21.9225998856      -17.0314802641  MEOH      2250            0.0000000000
     38511      2942  MEOH      DC1            31.7495743447      -21.9111587779      -17.0023906655  MEOH      2250            0.0000000000
     38512      2942  MEOH      O1             31.5859960759      -21.3028716073      -15.7495048827  MEOH      2250            0.0000000000
     38513      2942  MEOH      DO1            31.5815818445      -21.2823580733      -15.7265527210  MEOH      2250            0.0000000000
     38514      2942  MEOH      HO1            30.6268481909      -21.1846904970      -15.6660269715  MEOH      2250            0.0000000000
     38515      2942  MEOH      HO2            32.0549596002      -21.8789776189      -15.1257460541  MEOH      2250            0.0000000000
     38516      2942  MEOH      H1A            32.8134126680      -22.1354071597      -17.2344950955  MEOH      2250            0.0000000000
     38517      2942  MEOH      H1B            31.3551613045      -21.2561051209      -17.8317447550  MEOH      2250            0.0000000000
     38518      2942  MEOH      H1C            31.1723387190      -22.8756569827      -17.0693325964  MEOH      2250            0.0000000000
     38519      2942  MEOH      LP1A           31.5543368366      -21.5475974729      -15.5012974226  MEOH      2250            0.0000000000
     38520      2942  MEOH      LP1B           31.6029529292      -20.9547916294      -15.7819516711  MEOH      2250            0.0000000000
     38521      2943  MEOH      C1             -4.8233785069       17.6152391418      -27.0447278085  MEOH      2251            0.0000000000
     38522      2943  MEOH      DC1            -4.8395247799       17.6179183354      -27.0438907197  MEOH      2251            0.0000000000
     38523      2943  MEOH      O1             -5.8648932080       18.5608191763      -26.7603886329  MEOH      2251            0.0000000000
     38524      2943  MEOH      DO1            -5.8827706311       18.5675029808      -26.7774481357  MEOH      2251            0.0000000000
     38525      2943  MEOH      HO1            -5.6103766108       19.4301785832      -27.1072827426  MEOH      2251            0.0000000000
     38526      2943  MEOH      HO2            -6.7239266203       18.1284043790      -26.8867968616  MEOH      2251            0.0000000000
     38527      2943  MEOH      H1A            -4.9042106898       16.7406694890      -26.3643491777  MEOH      2251            0.0000000000
     38528      2943  MEOH      H1B            -3.8303202900       18.0867856937      -26.8841033169  MEOH      2251            0.0000000000
     38529      2943  MEOH      H1C            -4.8964673953       17.2508293741      -28.0917161262  MEOH      2251            0.0000000000
     38530      2943  MEOH      LP1A           -6.0987094908       18.5632809539      -27.0208188262  MEOH      2251            0.0000000000
     38531      2943  MEOH      LP1B           -5.8109161238       18.7078389388      -26.4473843777  MEOH      2251            0.0000000000
     38532      2944  MEOH      C1             -7.0160456646       -1.9803467455      -31.9781098528  MEOH      2252            0.0000000000
     38533      2944  MEOH      DC1            -7.0118675278       -1.9904413652      -31.9757382435  MEOH      2252            0.0000000000
     38534      2944  MEOH      O1             -7.5418073223       -1.9630245664      -33.3024296169  MEOH      2252            0.0000000000
     38535      2944  MEOH      DO1            -7.5354873026       -1.9758658638      -33.3012693415  MEOH      2252            0.0000000000
     38536      2944  MEOH      HO1            -8.4908645322       -2.1531005877      -33.2386995740  MEOH      2252            0.0000000000
     38537      2944  MEOH      HO2            -7.2673359439       -1.1096556028      -33.6730060265  MEOH      2252            0.0000000000
     38538      2944  MEOH      H1A            -5.9405366863       -1.7035338272      -32.0093516082  MEOH      2252            0.0000000000
     38539      2944  MEOH      H1B            -7.1263542487       -2.9971665184      -31.5442543858  MEOH      2252            0.0000000000
     38540      2944  MEOH      H1C            -7.5540798526       -1.2429197237      -31.3448313989  MEOH      2252            0.0000000000
     38541      2944  MEOH      LP1A           -7.6432050658       -1.6388171298      -33.3867387841  MEOH      2252            0.0000000000
     38542      2944  MEOH      LP1B           -7.5182995789       -2.2819218833      -33.4447387427  MEOH      2252            0.0000000000
     38543      2945  MEOH      C1             -4.6598749502      -23.4434859661      -24.2256454967  MEOH      2253            0.0000000000
     38544      2945  MEOH      DC1            -4.6559458653      -23.4313110411      -24.2443791008  MEOH      2253            0.0000000000
     38545      2945  MEOH      O1             -4.2526110869      -22.9247603708      -25.4954839361  MEOH      2253            0.0000000000
     38546      2945  MEOH      DO1            -4.2575138035      -22.9290805907      -25.5150700733  MEOH      2253            0.0000000000
     38547      2945  MEOH      HO1            -4.3703305994      -21.9633568492      -25.4430875145  MEOH      2253            0.0000000000
     38548      2945  MEOH      HO2            -3.3552290068      -23.2674196789      -25.6303542512  MEOH      2253            0.0000000000
     38549      2945  MEOH      H1A            -4.5202451851      -24.5450870917      -24.1895970420  MEOH      2253            0.0000000000
     38550      2945  MEOH      H1B            -5.7363222934      -23.2386576555      -24.0422675233  MEOH      2253            0.0000000000
     38551      2945  MEOH      H1C            -4.0569895884      -22.9930547805      -23.4083560818  MEOH      2253            0.0000000000
     38552      2945  MEOH      LP1A           -3.9096341339      -22.8550893332      -25.4919123513  MEOH      2253            0.0000000000
     38553      2945  MEOH      LP1B           -4.5250538792      -22.9182807729      -25.7151039254  MEOH      2253            0.0000000000
     38554      2946  MEOH      C1             31.8556498646       11.2090584014      -12.1647282935  MEOH      2254            0.0000000000
     38555      2946  MEOH      DC1            31.8503275319       11.2105066225      -12.1662696905  MEOH      2254            0.0000000000
     38556      2946  MEOH      O1             31.6814206407       12.5674133692      -11.7586295669  MEOH      2254            0.0000000000
     38557      2946  MEOH      DO1            31.6844742597       12.5663373625      -11.7548068140  MEOH      2254            0.0000000000
     38558      2946  MEOH      HO1            31.6165120853       13.1006940576      -12.5662796067  MEOH      2254            0.0000000000
     38559      2946  MEOH      HO2            30.9420124254       12.5598418022      -11.1308412556  MEOH      2254            0.0000000000
     38560      2946  MEOH      H1A            31.9945137548       10.5575142876      -11.2756118284  MEOH      2254            0.0000000000
     38561      2946  MEOH      H1B            32.7501431864       11.1196019329      -12.8175684251  MEOH      2254            0.0000000000
     38562      2946  MEOH      H1C            30.9513933185       10.8635523259      -12.7099499478  MEOH      2254            0.0000000000
     38563      2946  MEOH      LP1A           31.3407935758       12.6381375487      -11.7202721280  MEOH      2254            0.0000000000
     38564      2946  MEOH      LP1B           31.9932183418       12.7211162974      -11.7179158906  MEOH      2254            0.0000000000
     38565      2947  MEOH      C1              8.6740894418       17.3601382558      -13.7286998177  MEOH      2255            0.0000000000
     38566      2947  MEOH      DC1             8.6873841884       17.3619023404      -13.7302454469  MEOH      2255            0.0000000000
     38567      2947  MEOH      O1              9.4399528445       16.3197423408      -14.3326099355  MEOH      2255            0.0000000000
     38568      2947  MEOH      DO1             9.4515010655       16.3183946265      -14.3377361220  MEOH      2255            0.0000000000
     38569      2947  MEOH      HO1            10.2154198636       16.1903730959      -13.7644422659  MEOH      2255            0.0000000000
     38570      2947  MEOH      HO2             8.8177640076       15.5882738779      -14.4694855711  MEOH      2255            0.0000000000
     38571      2947  MEOH      H1A             7.7723893577       17.5750273591      -14.3411380861  MEOH      2255            0.0000000000
     38572      2947  MEOH      H1B             9.2899122998       18.2820470847      -13.6568157526  MEOH      2255            0.0000000000
     38573      2947  MEOH      H1C             8.3425745045       17.0466113675      -12.7157241327  MEOH      2255            0.0000000000
     38574      2947  MEOH      LP1A            9.3347019576       16.0083654132      -14.2123325072  MEOH      2255            0.0000000000
     38575      2947  MEOH      LP1B            9.6660121797       16.4556184377      -14.5626857127  MEOH      2255            0.0000000000
     38576      2948  MEOH      C1             28.2662331098       -5.4531308544      -12.3045181610  MEOH      2256            0.0000000000
     38577      2948  MEOH      DC1            28.2696890789       -5.4687839164      -12.3011722960  MEOH      2256            0.0000000000
     38578      2948  MEOH      O1             27.0394041392       -4.7268430020      -12.3036445708  MEOH      2256            0.0000000000
     38579      2948  MEOH      DO1            27.0248322037       -4.7605449155      -12.3036546338  MEOH      2256            0.0000000000
     38580      2948  MEOH      HO1            26.9822191889       -4.2492560282      -13.1459868792  MEOH      2256            0.0000000000
     38581      2948  MEOH      HO2            26.3526790413       -5.3358401352      -11.9899072096  MEOH      2256            0.0000000000
     38582      2948  MEOH      H1A            28.5206677569       -5.7757519771      -11.2722877490  MEOH      2256            0.0000000000
     38583      2948  MEOH      H1B            29.0833898206       -4.8053245123      -12.6878233312  MEOH      2256            0.0000000000
     38584      2948  MEOH      H1C            28.1605923612       -6.3471154987      -12.9556345009  MEOH      2256            0.0000000000
     38585      2948  MEOH      LP1A           26.7825362187       -4.9255980795      -12.4340872424  MEOH      2256            0.0000000000
     38586      2948  MEOH      LP1B           27.0878444406       -4.4102049046      -12.1625990019  MEOH      2256            0.0000000000
     38587      2949  MEOH      C1            -31.8027307934        7.0110327500        1.3487022265  MEOH      2257            0.0000000000
     38588      2949  MEOH      DC1           -31.7836705453        6.9855753766        1.3518285666  MEOH      2257            0.0000000000
     38589      2949  MEOH      O1            -32.6075138878        6.4252438443        0.3235080076  MEOH      2257            0.0000000000
     38590      2949  MEOH      DO1           -32.6038582974        6.4089831977        0.3238789800  MEOH      2257            0.0000000000
     38591      2949  MEOH      HO1           -33.0490313309        5.6570571978        0.7182884829  MEOH      2257            0.0000000000
     38592      2949  MEOH      HO2           -33.1521691498        7.1537042000       -0.0135322820  MEOH      2257            0.0000000000
     38593      2949  MEOH      H1A           -31.2773802296        7.9098074965        0.9607180250  MEOH      2257            0.0000000000
     38594      2949  MEOH      H1B           -31.0547386955        6.2672897699        1.6975219521  MEOH      2257            0.0000000000
     38595      2949  MEOH      H1C           -32.4370155329        7.3316211115        2.2026501016  MEOH      2257            0.0000000000
     38596      2949  MEOH      LP1A          -32.9256642273        6.5711210400        0.3230549183  MEOH      2257            0.0000000000
     38597      2949  MEOH      LP1B          -32.4206966413        6.1892951166        0.1448252880  MEOH      2257            0.0000000000
     38598      2950  MEOH      C1             11.2480986960        2.2758647731       21.3069546928  MEOH      2258            0.0000000000
     38599      2950  MEOH      DC1            11.2489282937        2.2622359778       21.2976700892  MEOH      2258            0.0000000000
     38600      2950  MEOH      O1             11.1144237356        0.8527085872       21.3478828223  MEOH      2258            0.0000000000
     38601      2950  MEOH      DO1            11.1081874304        0.8347410118       21.3430681246  MEOH      2258            0.0000000000
     38602      2950  MEOH      HO1            11.7766977059        0.5124144773       20.7261971243  MEOH      2258            0.0000000000
     38603      2950  MEOH      HO2            11.1736878300        0.6141653684       22.2862243917  MEOH      2258            0.0000000000
     38604      2950  MEOH      H1A            10.5249237172        2.7541002198       22.0016703239  MEOH      2258            0.0000000000
     38605      2950  MEOH      H1B            11.0426943991        2.6619078539       20.2856316222  MEOH      2258            0.0000000000
     38606      2950  MEOH      H1C            12.2776252962        2.5577130429       21.6151064960  MEOH      2258            0.0000000000
     38607      2950  MEOH      LP1A           11.3200941229        0.7203064546       21.5982213273  MEOH      2258            0.0000000000
     38608      2950  MEOH      LP1B           10.8779427744        0.7478575007       21.1121223407  MEOH      2258            0.0000000000
     38609      2951  MEOH      C1             14.2115297411       -9.7055259791       29.1877552790  MEOH      2259            0.0000000000
     38610      2951  MEOH      DC1            14.2106488496       -9.7075204633       29.1896366236  MEOH      2259            0.0000000000
     38611      2951  MEOH      O1             13.9804373242       -9.6841647116       27.7756217541  MEOH      2259            0.0000000000
     38612      2951  MEOH      DO1            13.9881645238       -9.6831875951       27.7712973946  MEOH      2259            0.0000000000
     38613      2951  MEOH      HO1            13.9070999747      -10.6123476328       27.5035958398  MEOH      2259            0.0000000000
     38614      2951  MEOH      HO2            13.2133619914       -9.1041515959       27.6488139450  MEOH      2259            0.0000000000
     38615      2951  MEOH      H1A            14.2452821527       -8.6679642651       29.5835424243  MEOH      2259            0.0000000000
     38616      2951  MEOH      H1B            15.1772819575      -10.2077967465       29.4099437889  MEOH      2259            0.0000000000
     38617      2951  MEOH      H1C            13.3877278969      -10.2572527228       29.6890227947  MEOH      2259            0.0000000000
     38618      2951  MEOH      LP1A           13.6369429843       -9.6666142976       27.7107864134  MEOH      2259            0.0000000000
     38619      2951  MEOH      LP1B           14.2856438668       -9.6866681505       27.6043246462  MEOH      2259            0.0000000000
     38620      2952  MEOH      C1             -9.5700034442      -34.4920700974       -0.6329631413  MEOH      2260            0.0000000000
     38621      2952  MEOH      DC1            -9.5683467108      -34.4856424429       -0.6441057475  MEOH      2260            0.0000000000
     38622      2952  MEOH      O1             -9.5886517085      -33.1093373895       -0.9721279723  MEOH      2260            0.0000000000
     38623      2952  MEOH      DO1            -9.5909130604      -33.1033319293       -0.9829875634  MEOH      2260            0.0000000000
     38624      2952  MEOH      HO1            -8.8131954766      -32.7240748152       -0.5349319267  MEOH      2260            0.0000000000
     38625      2952  MEOH      HO2            -9.6982967667      -33.0748657540       -1.9352944519  MEOH      2260            0.0000000000
     38626      2952  MEOH      H1A           -10.5444951805      -34.9741452743       -0.8616340442  MEOH      2260            0.0000000000
     38627      2952  MEOH      H1B            -9.3867605802      -34.5978902252        0.4576995719  MEOH      2260            0.0000000000
     38628      2952  MEOH      H1C            -8.7636451723      -35.0159402457       -1.1894408183  MEOH      2260            0.0000000000
     38629      2952  MEOH      LP1A           -9.4133160227      -33.0568849339       -1.2704669358  MEOH      2260            0.0000000000
     38630      2952  MEOH      LP1B           -9.7766904764      -32.9309212020       -0.7369491344  MEOH      2260            0.0000000000
     38631      2953  MEOH      C1            -12.3646893837      -20.8929077448       -7.5053845783  MEOH      2261            0.0000000000
     38632      2953  MEOH      DC1           -12.3523890051      -20.9041493295       -7.5066070714  MEOH      2261            0.0000000000
     38633      2953  MEOH      O1            -11.1258268310      -21.3757207191       -8.0236423201  MEOH      2261            0.0000000000
     38634      2953  MEOH      DO1           -11.1165035637      -21.3911766160       -8.0249247798  MEOH      2261            0.0000000000
     38635      2953  MEOH      HO1           -10.4544506211      -21.2256059930       -7.3398151827  MEOH      2261            0.0000000000
     38636      2953  MEOH      HO2           -11.2987994986      -22.2561201088       -8.3922577993  MEOH      2261            0.0000000000
     38637      2953  MEOH      H1A           -13.1192365755      -20.8682793502       -8.3204753580  MEOH      2261            0.0000000000
     38638      2953  MEOH      H1B           -12.2286793324      -19.8588179540       -7.1226567754  MEOH      2261            0.0000000000
     38639      2953  MEOH      H1C           -12.7329154113      -21.5472802215       -6.6865272927  MEOH      2261            0.0000000000
     38640      2953  MEOH      LP1A          -11.0872295126      -21.7146399007       -7.9452584228  MEOH      2261            0.0000000000
     38641      2953  MEOH      LP1B          -10.9618432842      -21.1208479993       -8.1987117152  MEOH      2261            0.0000000000
     38642      2954  MEOH      C1              7.0681755790       27.5356815977       31.5588018798  MEOH      2262            0.0000000000
     38643      2954  MEOH      DC1             7.0649619544       27.5296825231       31.5525514489  MEOH      2262            0.0000000000
     38644      2954  MEOH      O1              6.2229795750       27.3718077128       30.4220198858  MEOH      2262            0.0000000000
     38645      2954  MEOH      DO1             6.2131246905       27.3753012085       30.4228005346  MEOH      2262            0.0000000000
     38646      2954  MEOH      HO1             5.6697089153       26.5926003097       30.5882348087  MEOH      2262            0.0000000000
     38647      2954  MEOH      HO2             5.8155747728       28.2399116902       30.2760171059  MEOH      2262            0.0000000000
     38648      2954  MEOH      H1A             7.7859413530       28.3535521206       31.3347012248  MEOH      2262            0.0000000000
     38649      2954  MEOH      H1B             7.6297884139       26.6008853544       31.7710941505  MEOH      2262            0.0000000000
     38650      2954  MEOH      H1C             6.4771274759       27.8273165211       32.4531911749  MEOH      2262            0.0000000000
     38651      2954  MEOH      LP1A            5.9273282371       27.5540387190       30.4654036018  MEOH      2262            0.0000000000
     38652      2954  MEOH      LP1B            6.3814884989       27.1713057962       30.1829092368  MEOH      2262            0.0000000000
     38653      2955  MEOH      C1             16.8699300922      -25.0844697556       -0.3406726090  MEOH      2263            0.0000000000
     38654      2955  MEOH      DC1            16.8760641540      -25.0746208909       -0.3520174714  MEOH      2263            0.0000000000
     38655      2955  MEOH      O1             15.5937512520      -24.6078627854        0.0852922019  MEOH      2263            0.0000000000
     38656      2955  MEOH      DO1            15.5990974375      -24.6031979021        0.0679062189  MEOH      2263            0.0000000000
     38657      2955  MEOH      HO1            15.2598742175      -23.9429079368       -0.5370109203  MEOH      2263            0.0000000000
     38658      2955  MEOH      HO2            15.0688897884      -25.3928946374        0.3069798998  MEOH      2263            0.0000000000
     38659      2955  MEOH      H1A            17.2962951343      -25.7295330992        0.4570912251  MEOH      2263            0.0000000000
     38660      2955  MEOH      H1B            17.5588509425      -24.2314548648       -0.5197666034  MEOH      2263            0.0000000000
     38661      2955  MEOH      H1C            16.7593323246      -25.6953781421       -1.2620194911  MEOH      2263            0.0000000000
     38662      2955  MEOH      LP1A           15.3401944144      -24.8083542715       -0.0489169411  MEOH      2263            0.0000000000
     38663      2955  MEOH      LP1B           15.6336803208      -24.3344017994        0.3000589559  MEOH      2263            0.0000000000
     38664      2956  MEOH      C1              2.1510311070      -36.4182287181      -13.5185871920  MEOH      2264            0.0000000000
     38665      2956  MEOH      DC1             2.1793577539      -36.4071236287      -13.5208226831  MEOH      2264            0.0000000000
     38666      2956  MEOH      O1              0.7941307413      -36.1966888329      -13.1550110963  MEOH      2264            0.0000000000
     38667      2956  MEOH      DO1             0.8124176573      -36.1982603244      -13.1534959499  MEOH      2264            0.0000000000
     38668      2956  MEOH      HO1             0.3327805069      -35.8402406165      -13.9302534016  MEOH      2264            0.0000000000
     38669      2956  MEOH      HO2             0.5013745866      -37.0351795962      -12.7649763876  MEOH      2264            0.0000000000
     38670      2956  MEOH      H1A             2.7261860358      -36.8125742360      -12.6537118135  MEOH      2264            0.0000000000
     38671      2956  MEOH      H1B             2.5443632972      -35.4356288172      -13.8563862806  MEOH      2264            0.0000000000
     38672      2956  MEOH      H1C             2.2215585715      -37.1410928011      -14.3593097353  MEOH      2264            0.0000000000
     38673      2956  MEOH      LP1A            0.6055441599      -36.4854412310      -13.2146529771  MEOH      2264            0.0000000000
     38674      2956  MEOH      LP1B            0.7564909054      -35.8744962424      -13.0235760272  MEOH      2264            0.0000000000
     38675      2957  MEOH      C1            -27.5412390922       -3.1801076404      -34.6815654312  MEOH      2265            0.0000000000
     38676      2957  MEOH      DC1           -27.5476641895       -3.1816347318      -34.6878835460  MEOH      2265            0.0000000000
     38677      2957  MEOH      O1            -27.7517145040       -4.2740316308      -35.5761559231  MEOH      2265            0.0000000000
     38678      2957  MEOH      DO1           -27.7573912723       -4.2771939619      -35.5793114195  MEOH      2265            0.0000000000
     38679      2957  MEOH      HO1           -28.1028966211       -3.9164924388      -36.4066598953  MEOH      2265            0.0000000000
     38680      2957  MEOH      HO2           -26.9235127784       -4.7789885807      -35.5755390958  MEOH      2265            0.0000000000
     38681      2957  MEOH      H1A           -27.1591868339       -3.5583329428      -33.7092986495  MEOH      2265            0.0000000000
     38682      2957  MEOH      H1B           -28.4993851512       -2.6455626101      -34.5068120602  MEOH      2265            0.0000000000
     38683      2957  MEOH      H1C           -26.7950695787       -2.4754825707      -35.1070716806  MEOH      2265            0.0000000000
     38684      2957  MEOH      LP1A          -27.4611583680       -4.3345799149      -35.7616580448  MEOH      2265            0.0000000000
     38685      2957  MEOH      LP1B          -28.0737188557       -4.4040779669      -35.5325537684  MEOH      2265            0.0000000000
     38686      2958  MEOH      C1            -33.4227152053       18.9841206545       -5.3716407152  MEOH      2266            0.0000000000
     38687      2958  MEOH      DC1           -33.4212035967       18.9838502333       -5.3677461793  MEOH      2266            0.0000000000
     38688      2958  MEOH      O1            -33.4815770528       20.3727522041       -5.6797752268  MEOH      2266            0.0000000000
     38689      2958  MEOH      DO1           -33.4823280646       20.3773533621       -5.6774900412  MEOH      2266            0.0000000000
     38690      2958  MEOH      HO1           -32.7216794846       20.8042475545       -5.2587438157  MEOH      2266            0.0000000000
     38691      2958  MEOH      HO2           -33.6159892153       20.4339209187       -6.6384679612  MEOH      2266            0.0000000000
     38692      2958  MEOH      H1A           -34.2740674810       18.4551247242       -5.8508938930  MEOH      2266            0.0000000000
     38693      2958  MEOH      H1B           -33.4636596257       18.8337426184       -4.2716266233  MEOH      2266            0.0000000000
     38694      2958  MEOH      H1C           -32.4740561483       18.5665658327       -5.7716594209  MEOH      2266            0.0000000000
     38695      2958  MEOH      LP1A          -33.3117350678       20.4362456756       -5.9791450302  MEOH      2266            0.0000000000
     38696      2958  MEOH      LP1B          -33.6709229055       20.5410404687       -5.4382649618  MEOH      2266            0.0000000000
     38697      2959  MEOH      C1             -4.5315212645       28.8999624559       -3.5809047729  MEOH      2267            0.0000000000
     38698      2959  MEOH      DC1            -4.5378686275       28.9048982580       -3.5742849532  MEOH      2267            0.0000000000
     38699      2959  MEOH      O1             -4.1936230772       30.0430725004       -2.7938671463  MEOH      2267            0.0000000000
     38700      2959  MEOH      DO1            -4.2050315588       30.0487615743       -2.7926634834  MEOH      2267            0.0000000000
     38701      2959  MEOH      HO1            -3.7558211618       29.7192659542       -1.9911350593  MEOH      2267            0.0000000000
     38702      2959  MEOH      HO2            -3.6930542641       30.6223920938       -3.3894506188  MEOH      2267            0.0000000000
     38703      2959  MEOH      H1A            -4.9824039814       29.2235363454       -4.5433629358  MEOH      2267            0.0000000000
     38704      2959  MEOH      H1B            -5.2600596942       28.2610575770       -3.0374405946  MEOH      2267            0.0000000000
     38705      2959  MEOH      H1C            -3.6221288787       28.3015756149       -3.8028499849  MEOH      2267            0.0000000000
     38706      2959  MEOH      LP1A           -3.8763100672       30.1605154023       -2.8834194688  MEOH      2267            0.0000000000
     38707      2959  MEOH      LP1B           -4.4588841125       30.1240815821       -2.5803862061  MEOH      2267            0.0000000000
     38708      2960  MEOH      C1            -20.6379708190       32.8932450985      -12.9587259075  MEOH      2268            0.0000000000
     38709      2960  MEOH      DC1           -20.6582623911       32.9044660363      -12.9518250177  MEOH      2268            0.0000000000
     38710      2960  MEOH      O1            -20.8416745687       33.5647185632      -11.7125680189  MEOH      2268            0.0000000000
     38711      2960  MEOH      DO1           -20.8511018992       33.5659560589      -11.6995291356  MEOH      2268            0.0000000000
     38712      2960  MEOH      HO1           -20.1549059169       34.2475995924      -11.6585095419  MEOH      2268            0.0000000000
     38713      2960  MEOH      HO2           -21.7882848359       33.7695052879      -11.6587962684  MEOH      2268            0.0000000000
     38714      2960  MEOH      H1A           -21.1710605597       31.9185834001      -12.9456529376  MEOH      2268            0.0000000000
     38715      2960  MEOH      H1B           -19.5543874872       32.6947971363      -13.1029013882  MEOH      2268            0.0000000000
     38716      2960  MEOH      H1C           -21.0043864591       33.5042006688      -13.8112479724  MEOH      2268            0.0000000000
     38717      2960  MEOH      LP1A          -21.0642529852       33.8314284100      -11.7552845978  MEOH      2268            0.0000000000
     38718      2960  MEOH      LP1B          -20.6621333399       33.4035652599      -11.4590042992  MEOH      2268            0.0000000000
     38719      2961  MEOH      C1            -13.1649636793      -12.0096203000       35.1121738151  MEOH      2269            0.0000000000
     38720      2961  MEOH      DC1           -13.1593136830      -12.0319780692       35.1193032119  MEOH      2269            0.0000000000
     38721      2961  MEOH      O1            -12.2254554383      -13.0539662681       35.3720785143  MEOH      2269            0.0000000000
     38722      2961  MEOH      DO1           -12.2215285311      -13.0695436797       35.3758622308  MEOH      2269            0.0000000000
     38723      2961  MEOH      HO1           -11.3865347518      -12.6052355903       35.5611627826  MEOH      2269            0.0000000000
     38724      2961  MEOH      HO2           -12.6391032637      -13.6318244460       36.0322871201  MEOH      2269            0.0000000000
     38725      2961  MEOH      H1A           -14.1281192334      -12.4497241154       34.7760770866  MEOH      2269            0.0000000000
     38726      2961  MEOH      H1B           -12.7897182356      -11.3396812452       34.3092457238  MEOH      2269            0.0000000000
     38727      2961  MEOH      H1C           -13.3384949875      -11.4073060370       36.0294662522  MEOH      2269            0.0000000000
     38728      2961  MEOH      LP1A          -12.2281624100      -13.1354445814       35.7124517752  MEOH      2269            0.0000000000
     38729      2961  MEOH      LP1B          -12.0735151163      -13.1553324089       35.0735168891  MEOH      2269            0.0000000000
     38730      2962  MEOH      C1             35.4444707104       -2.4013619863      -35.3944242356  MEOH      2270            0.0000000000
     38731      2962  MEOH      DC1            35.4385732213       -2.4082223242      -35.3898965016  MEOH      2270            0.0000000000
     38732      2962  MEOH      O1             34.3908419146       -2.8836141543      -34.5630925304  MEOH      2270            0.0000000000
     38733      2962  MEOH      DO1            34.3927781693       -2.8981583437      -34.5624816270  MEOH      2270            0.0000000000
     38734      2962  MEOH      HO1            34.7701617868       -3.1281952823      -33.7044910468  MEOH      2270            0.0000000000
     38735      2962  MEOH      HO2            33.6891724594       -2.2159836750      -34.6162857518  MEOH      2270            0.0000000000
     38736      2962  MEOH      H1A            35.0363425098       -2.0814245062      -36.3769680681  MEOH      2270            0.0000000000
     38737      2962  MEOH      H1B            36.1930478843       -3.2055625489      -35.5593929311  MEOH      2270            0.0000000000
     38738      2962  MEOH      H1C            35.9291974614       -1.5221288790      -34.9187036033  MEOH      2270            0.0000000000
     38739      2962  MEOH      LP1A           34.2459107546       -2.6179233598      -34.3872990135  MEOH      2270            0.0000000000
     38740      2962  MEOH      LP1B           34.3513775373       -3.2284938637      -34.6078200267  MEOH      2270            0.0000000000
     38741      2963  MEOH      C1             34.1226991652       21.8731241775      -18.7305347795  MEOH      2271            0.0000000000
     38742      2963  MEOH      DC1            34.1121388732       21.8684476443      -18.7220299053  MEOH      2271            0.0000000000
     38743      2963  MEOH      O1             35.5400366669       21.7069361951      -18.6813055966  MEOH      2271            0.0000000000
     38744      2963  MEOH      DO1            35.5273509963       21.6987915736      -18.6678538153  MEOH      2271            0.0000000000
     38745      2963  MEOH      HO1            35.8128031046       21.2298021621      -19.4805812594  MEOH      2271            0.0000000000
     38746      2963  MEOH      HO2            35.8936513216       22.5999878958      -18.5459714289  MEOH      2271            0.0000000000
     38747      2963  MEOH      H1A            33.7890072629       22.4673318156      -17.8531021615  MEOH      2271            0.0000000000
     38748      2963  MEOH      H1B            33.6255345365       20.8797014447      -18.7144224675  MEOH      2271            0.0000000000
     38749      2963  MEOH      H1C            33.8268036797       22.4065236449      -19.6591099622  MEOH      2271            0.0000000000
     38750      2963  MEOH      LP1A           35.6980155966       21.9818070438      -18.8295913825  MEOH      2271            0.0000000000
     38751      2963  MEOH      LP1B           35.6199969056       21.4097035996      -18.5146948395  MEOH      2271            0.0000000000
     38752      2964  MEOH      C1             28.9388989431        6.3894746632       35.1470891676  MEOH      2272            0.0000000000
     38753      2964  MEOH      DC1            28.9531897656        6.4105141076       35.1376701752  MEOH      2272            0.0000000000
     38754      2964  MEOH      O1             29.6810849081        7.4472922947       34.5380294059  MEOH      2272            0.0000000000
     38755      2964  MEOH      DO1            29.6928939355        7.4622067892       34.5266783062  MEOH      2272            0.0000000000
     38756      2964  MEOH      HO1            29.6108592930        8.1953397469       35.1515384703  MEOH      2272            0.0000000000
     38757      2964  MEOH      HO2            30.5487235487        7.0672017070       34.3291410738  MEOH      2272            0.0000000000
     38758      2964  MEOH      H1A            28.9431476766        5.4915530706       34.4928416896  MEOH      2272            0.0000000000
     38759      2964  MEOH      H1B            27.8830978828        6.6905799596       35.3172088947  MEOH      2272            0.0000000000
     38760      2964  MEOH      H1C            29.3929659711        6.1223609148       36.1252478364  MEOH      2272            0.0000000000
     38761      2964  MEOH      LP1A           30.0162787955        7.4310047596       34.6374264583  MEOH      2272            0.0000000000
     38762      2964  MEOH      LP1B           29.4727678391        7.6340076934       34.3276931070  MEOH      2272            0.0000000000
     38763      2965  MEOH      C1             -9.7500869782      -28.7347274524        5.9498858711  MEOH      2273            0.0000000000
     38764      2965  MEOH      DC1            -9.7700640115      -28.7269432853        5.9515003816  MEOH      2273            0.0000000000
     38765      2965  MEOH      O1            -10.0197902161      -29.6096720875        7.0454821440  MEOH      2273            0.0000000000
     38766      2965  MEOH      DO1           -10.0325981249      -29.6100556578        7.0529710146  MEOH      2273            0.0000000000
     38767      2965  MEOH      HO1           -10.4389255342      -30.4043988926        6.6799210800  MEOH      2273            0.0000000000
     38768      2965  MEOH      HO2            -9.1818354898      -29.6882066280        7.5277312525  MEOH      2273            0.0000000000
     38769      2965  MEOH      H1A            -9.2522315213      -27.8140859140        6.3225520790  MEOH      2273            0.0000000000
     38770      2965  MEOH      H1B           -10.7085329877      -28.4652059466        5.4568743046  MEOH      2273            0.0000000000
     38771      2965  MEOH      H1C            -9.0729557091      -29.2239449862        5.2174376127  MEOH      2273            0.0000000000
     38772      2965  MEOH      LP1A           -9.7443418277      -29.8177791066        7.1030985818  MEOH      2273            0.0000000000
     38773      2965  MEOH      LP1B          -10.3359403160      -29.5406025102        7.1788182151  MEOH      2273            0.0000000000
     38774      2966  MEOH      C1            -32.0211704929      -28.4311472090      -33.2045003787  MEOH      2274            0.0000000000
     38775      2966  MEOH      DC1           -32.0320886308      -28.4336818703      -33.2003603490  MEOH      2274            0.0000000000
     38776      2966  MEOH      O1            -32.7491727338      -29.1786964331      -34.1766987535  MEOH      2274            0.0000000000
     38777      2966  MEOH      DO1           -32.7469567269      -29.1799269912      -34.1799050438  MEOH      2274            0.0000000000
     38778      2966  MEOH      HO1           -33.6907628016      -28.9715851369      -34.0698668522  MEOH      2274            0.0000000000
     38779      2966  MEOH      HO2           -32.2966580202      -29.0283435704      -35.0214025191  MEOH      2274            0.0000000000
     38780      2966  MEOH      H1A           -30.9559606889      -28.7468194287      -33.2048511945  MEOH      2274            0.0000000000
     38781      2966  MEOH      H1B           -32.4298840841      -28.6110740399      -32.1871997657  MEOH      2274            0.0000000000
     38782      2966  MEOH      H1C           -32.0630092322      -27.3467031031      -33.4423059746  MEOH      2274            0.0000000000
     38783      2966  MEOH      LP1A          -32.7750104356      -28.9955126043      -34.4738116917  MEOH      2274            0.0000000000
     38784      2966  MEOH      LP1B          -32.8357309220      -29.4919005618      -34.0466570148  MEOH      2274            0.0000000000
     38785      2967  MEOH      C1              0.4162312979       18.8268154736      -23.1740525136  MEOH      2275            0.0000000000
     38786      2967  MEOH      DC1             0.4290772714       18.8244360026      -23.1846526719  MEOH      2275            0.0000000000
     38787      2967  MEOH      O1              0.7655026228       20.1466256998      -22.7621343696  MEOH      2275            0.0000000000
     38788      2967  MEOH      DO1             0.7679855787       20.1497409002      -22.7667823077  MEOH      2275            0.0000000000
     38789      2967  MEOH      HO1            -0.0065297833       20.4929118546      -22.2878434635  MEOH      2275            0.0000000000
     38790      2967  MEOH      HO2             1.6162350770       20.0599493951      -22.3042681122  MEOH      2275            0.0000000000
     38791      2967  MEOH      H1A             1.2434558595       18.3792965096      -23.7654468862  MEOH      2275            0.0000000000
     38792      2967  MEOH      H1B            -0.5131231274       18.8451303645      -23.7825637443  MEOH      2275            0.0000000000
     38793      2967  MEOH      H1C             0.2270864114       18.1993652166      -22.2769174140  MEOH      2275            0.0000000000
     38794      2967  MEOH      LP1A            0.9195529232       20.1371577052      -22.4480024514  MEOH      2275            0.0000000000
     38795      2967  MEOH      LP1B            0.6804087783       20.3764690523      -23.0119964734  MEOH      2275            0.0000000000
     38796      2968  MEOH      C1            -29.7716020433       22.9810614476        1.8701435206  MEOH      2276            0.0000000000
     38797      2968  MEOH      DC1           -29.7706703695       22.9911605076        1.8748857284  MEOH      2276            0.0000000000
     38798      2968  MEOH      O1            -29.0493950183       21.8533119710        1.3829191493  MEOH      2276            0.0000000000
     38799      2968  MEOH      DO1           -29.0404939030       21.8617967963        1.3951652614  MEOH      2276            0.0000000000
     38800      2968  MEOH      HO1           -29.6918798965       21.1521859882        1.1917764295  MEOH      2276            0.0000000000
     38801      2968  MEOH      HO2           -28.4552574672       22.1887671161        0.6934480361  MEOH      2276            0.0000000000
     38802      2968  MEOH      H1A           -29.0484159159       23.7371378746        2.2438697093  MEOH      2276            0.0000000000
     38803      2968  MEOH      H1B           -30.4440038942       22.6719553015        2.6987870760  MEOH      2276            0.0000000000
     38804      2968  MEOH      H1C           -30.3771528032       23.4345168080        1.0565050792  MEOH      2276            0.0000000000
     38805      2968  MEOH      LP1A          -29.0152826655       21.8741148659        1.0352072183  MEOH      2276            0.0000000000
     38806      2968  MEOH      LP1B          -28.9523390467       21.6488569268        1.6498990611  MEOH      2276            0.0000000000
     38807      2969  MEOH      C1            -20.7751681074      -31.6047713115       19.4038379501  MEOH      2277            0.0000000000
     38808      2969  MEOH      DC1           -20.7773631464      -31.6133188223       19.4117994279  MEOH      2277            0.0000000000
     38809      2969  MEOH      O1            -20.4570934162      -31.4214342871       18.0221777444  MEOH      2277            0.0000000000
     38810      2969  MEOH      DO1           -20.4586652095      -31.4273368112       18.0259239710  MEOH      2277            0.0000000000
     38811      2969  MEOH      HO1           -19.7333227767      -32.0258589010       17.7947421547  MEOH      2277            0.0000000000
     38812      2969  MEOH      HO2           -21.3007542127      -31.4521434769       17.5444818081  MEOH      2277            0.0000000000
     38813      2969  MEOH      H1A           -21.5072743899      -30.8299981336       19.7169959215  MEOH      2277            0.0000000000
     38814      2969  MEOH      H1B           -19.8587026374      -31.4996824825       20.0230054403  MEOH      2277            0.0000000000
     38815      2969  MEOH      H1C           -21.2201237549      -32.6107743267       19.5597013690  MEOH      2277            0.0000000000
     38816      2969  MEOH      LP1A          -20.6534500574      -31.6336734516       17.8249504479  MEOH      2277            0.0000000000
     38817      2969  MEOH      LP1B          -20.2156463844      -31.1704761715       17.9872012518  MEOH      2277            0.0000000000
     38818      2970  MEOH      C1              5.1105044239      -30.2917210671       16.7834456155  MEOH      2278            0.0000000000
     38819      2970  MEOH      DC1             5.1137015012      -30.2882219628       16.7825522747  MEOH      2278            0.0000000000
     38820      2970  MEOH      O1              5.5275049127      -29.3270667998       15.8161559912  MEOH      2278            0.0000000000
     38821      2970  MEOH      DO1             5.5267086627      -29.3143462835       15.8168781156  MEOH      2278            0.0000000000
     38822      2970  MEOH      HO1             4.7844619152      -29.1594196801       15.2155883031  MEOH      2278            0.0000000000
     38823      2970  MEOH      HO2             6.0037540357      -28.6316010475       16.2961707413  MEOH      2278            0.0000000000
     38824      2970  MEOH      H1A             5.9906506932      -30.7079398238       17.3186329576  MEOH      2278            0.0000000000
     38825      2970  MEOH      H1B             4.5810049012      -31.1261881855       16.2758868642  MEOH      2278            0.0000000000
     38826      2970  MEOH      H1C             4.4378149145      -29.8113310953       17.5257631350  MEOH      2278            0.0000000000
     38827      2970  MEOH      LP1A            5.4633998228      -29.0038364529       15.9341080166  MEOH      2278            0.0000000000
     38828      2970  MEOH      LP1B            5.6718666717      -29.4881413952       15.5409930263  MEOH      2278            0.0000000000
     38829      2971  MEOH      C1             -9.8938877381       14.4679751028       -3.9846084563  MEOH      2279            0.0000000000
     38830      2971  MEOH      DC1            -9.8906279637       14.4773186855       -3.9892209095  MEOH      2279            0.0000000000
     38831      2971  MEOH      O1             -9.3403451747       15.1007904721       -5.1326476962  MEOH      2279            0.0000000000
     38832      2971  MEOH      DO1            -9.3327031376       15.1048439259       -5.1336321666  MEOH      2279            0.0000000000
     38833      2971  MEOH      HO1            -9.1777282589       16.0293684532       -4.9041774100  MEOH      2279            0.0000000000
     38834      2971  MEOH      HO2            -8.6163864987       14.5223496973       -5.4193358657  MEOH      2279            0.0000000000
     38835      2971  MEOH      H1A           -10.2157162916       13.4341149122       -4.2333663512  MEOH      2279            0.0000000000
     38836      2971  MEOH      H1B           -10.7819645285       15.0320478086       -3.6275894130  MEOH      2279            0.0000000000
     38837      2971  MEOH      H1C            -9.1287394162       14.4062231341       -3.1814548346  MEOH      2279            0.0000000000
     38838      2971  MEOH      LP1A           -8.9916444573       15.0708357828       -5.1294032746  MEOH      2279            0.0000000000
     38839      2971  MEOH      LP1B           -9.5965219508       15.2273027695       -5.3348062923  MEOH      2279            0.0000000000
     38840      2972  MEOH      C1              4.6980305249       12.9313473607      -15.1641573083  MEOH      2280            0.0000000000
     38841      2972  MEOH      DC1             4.7123373795       12.9219343852      -15.1842659379  MEOH      2280            0.0000000000
     38842      2972  MEOH      O1              3.6506068278       13.1777971861      -14.2325193751  MEOH      2280            0.0000000000
     38843      2972  MEOH      DO1             3.6586187465       13.1735397348      -14.2504484858  MEOH      2280            0.0000000000
     38844      2972  MEOH      HO1             3.0989387169       13.9091366723      -14.5514313555  MEOH      2280            0.0000000000
     38845      2972  MEOH      HO2             3.2654868090       12.3145092271      -14.0149958786  MEOH      2280            0.0000000000
     38846      2972  MEOH      H1A             5.4195364379       12.2234509018      -14.7030360427  MEOH      2280            0.0000000000
     38847      2972  MEOH      H1B             5.2231075104       13.8819894395      -15.3984536960  MEOH      2280            0.0000000000
     38848      2972  MEOH      H1C             4.2779436377       12.4830345916      -16.0898266172  MEOH      2280            0.0000000000
     38849      2972  MEOH      LP1A            3.3724521281       12.9800083668      -14.3100406370  MEOH      2280            0.0000000000
     38850      2972  MEOH      LP1B            3.7565078292       13.4085632453      -13.9916210484  MEOH      2280            0.0000000000
     38851      2973  MEOH      C1              6.0811483646       -9.4459163368        3.8361378632  MEOH      2281            0.0000000000
     38852      2973  MEOH      DC1             6.0831094993       -9.4432234299        3.8361735229  MEOH      2281            0.0000000000
     38853      2973  MEOH      O1              6.4848544551       -9.1281408877        5.1608647852  MEOH      2281            0.0000000000
     38854      2973  MEOH      DO1             6.4851197915       -9.1357559420        5.1641665565  MEOH      2281            0.0000000000
     38855      2973  MEOH      HO1             7.0648956392       -9.8415299561        5.4699412513  MEOH      2281            0.0000000000
     38856      2973  MEOH      HO2             6.8068681288       -8.2137565679        5.1275704872  MEOH      2281            0.0000000000
     38857      2973  MEOH      H1A             5.4097995454       -8.6480872640        3.4526270610  MEOH      2281            0.0000000000
     38858      2973  MEOH      H1B             5.5342211212      -10.4128359649        3.8200747500  MEOH      2281            0.0000000000
     38859      2973  MEOH      H1C             6.9831558022       -9.5165937827        3.1913834284  MEOH      2281            0.0000000000
     38860      2973  MEOH      LP1A            6.7769356949       -8.9354191262        5.1540184707  MEOH      2281            0.0000000000
     38861      2973  MEOH      LP1B            6.2546301266       -9.2576451575        5.3904849120  MEOH      2281            0.0000000000
     38862      2974  MEOH      C1              9.4885697861      -25.5907449986       25.6638025052  MEOH      2282            0.0000000000
     38863      2974  MEOH      DC1             9.4947560742      -25.6109861515       25.6458208095  MEOH      2282            0.0000000000
     38864      2974  MEOH      O1             10.1503088425      -25.5363181562       26.9366344298  MEOH      2282            0.0000000000
     38865      2974  MEOH      DO1            10.1624266602      -25.5545685471       26.9272288885  MEOH      2282            0.0000000000
     38866      2974  MEOH      HO1             9.6983135398      -26.1112378001       27.5738688062  MEOH      2282            0.0000000000
     38867      2974  MEOH      HO2            11.1069524034      -25.5533394124       26.7771246362  MEOH      2282            0.0000000000
     38868      2974  MEOH      H1A             9.7476502815      -24.6818699611       25.0797267710  MEOH      2282            0.0000000000
     38869      2974  MEOH      H1B             8.3871993362      -25.6053613309       25.8090281785  MEOH      2282            0.0000000000
     38870      2974  MEOH      H1C             9.8013989167      -26.5002105077       25.1076267929  MEOH      2282            0.0000000000
     38871      2974  MEOH      LP1A           10.4021612985      -25.7789319508       26.9510873564  MEOH      2282            0.0000000000
     38872      2974  MEOH      LP1B           10.0164598033      -25.2772177826       27.1301581521  MEOH      2282            0.0000000000
     38873      2975  MEOH      C1             26.1030058289        7.0053884751      -29.6923375464  MEOH      2283            0.0000000000
     38874      2975  MEOH      DC1            26.0992533572        7.0001344952      -29.6719447903  MEOH      2283            0.0000000000
     38875      2975  MEOH      O1             26.4304112608        7.6078586984      -30.9432243446  MEOH      2283            0.0000000000
     38876      2975  MEOH      DO1            26.4186851339        7.6141844192      -30.9334687001  MEOH      2283            0.0000000000
     38877      2975  MEOH      HO1            27.1428081974        8.2471075944      -30.7858983935  MEOH      2283            0.0000000000
     38878      2975  MEOH      HO2            26.5988453140        6.8626825562      -31.5409219997  MEOH      2283            0.0000000000
     38879      2975  MEOH      H1A            25.3161102807        6.2354135983      -29.8415189308  MEOH      2283            0.0000000000
     38880      2975  MEOH      H1B            25.7128491948        7.7737956234      -28.9911604951  MEOH      2283            0.0000000000
     38881      2975  MEOH      H1C            27.0124476539        6.5419913520      -29.2535896986  MEOH      2283            0.0000000000
     38882      2975  MEOH      LP1A           26.6770529193        7.4200157279      -31.1056525156  MEOH      2283            0.0000000000
     38883      2975  MEOH      LP1B           26.2307101628        7.8904244785      -30.9959125917  MEOH      2283            0.0000000000
     38884      2976  MEOH      C1            -34.5578631218      -33.4407466821      -21.3527338224  MEOH      2284            0.0000000000
     38885      2976  MEOH      DC1           -34.5725656049      -33.4523226357      -21.3565611885  MEOH      2284            0.0000000000
     38886      2976  MEOH      O1            -35.0058670943      -33.7223391135      -20.0251005031  MEOH      2284            0.0000000000
     38887      2976  MEOH      DO1           -35.0118738015      -33.7299624513      -20.0232773703  MEOH      2284            0.0000000000
     38888      2976  MEOH      HO1           -35.1741945046      -32.8647301336      -19.6043004056  MEOH      2284            0.0000000000
     38889      2976  MEOH      HO2           -35.7072297007      -34.3871627373      -20.1087667660  MEOH      2284            0.0000000000
     38890      2976  MEOH      H1A           -34.2155857266      -34.3775558230      -21.8421782217  MEOH      2284            0.0000000000
     38891      2976  MEOH      H1B           -33.7117749526      -32.7212601711      -21.3245385933  MEOH      2284            0.0000000000
     38892      2976  MEOH      H1C           -35.3843415442      -32.9955197335      -21.9468948962  MEOH      2284            0.0000000000
     38893      2976  MEOH      LP1A          -35.3537968306      -33.7601960447      -20.0216724755  MEOH      2284            0.0000000000
     38894      2976  MEOH      LP1B          -34.7319706400      -33.7429043215      -19.8081723939  MEOH      2284            0.0000000000
     38895      2977  MEOH      C1              9.8116139935        6.2462640190      -35.9752700360  MEOH      2285            0.0000000000
     38896      2977  MEOH      DC1             9.8308845891        6.2478307183      -35.9599379576  MEOH      2285            0.0000000000
     38897      2977  MEOH      O1             11.1670737911        6.5973554365      -35.7109911718  MEOH      2285            0.0000000000
     38898      2977  MEOH      DO1            11.1781716610        6.5931296624      -35.6990056418  MEOH      2285            0.0000000000
     38899      2977  MEOH      HO1            11.6554140228        6.4130438402      -36.5285809550  MEOH      2285            0.0000000000
     38900      2977  MEOH      HO2            11.1242671791        7.5074795894      -35.3782125341  MEOH      2285            0.0000000000
     38901      2977  MEOH      H1A             9.1308687472        6.4837045171      -35.1299719106  MEOH      2285            0.0000000000
     38902      2977  MEOH      H1B             9.7546305910        5.1467888098      -36.1243611378  MEOH      2285            0.0000000000
     38903      2977  MEOH      H1C             9.4554575168        6.7766483809      -36.8842067735  MEOH      2285            0.0000000000
     38904      2977  MEOH      LP1A           11.2205136319        6.9346333118      -35.7877232916  MEOH      2285            0.0000000000
     38905      2977  MEOH      LP1B           11.3384985875        6.3221487381      -35.5791776205  MEOH      2285            0.0000000000
     38906      2978  MEOH      C1            -23.3007727996       20.1873078004       31.0168973913  MEOH      2286            0.0000000000
     38907      2978  MEOH      DC1           -23.2972514666       20.1906917967       31.0177933486  MEOH      2286            0.0000000000
     38908      2978  MEOH      O1            -22.5086730317       19.8332741078       29.8781063810  MEOH      2286            0.0000000000
     38909      2978  MEOH      DO1           -22.4945951426       19.8304730109       29.8805960795  MEOH      2286            0.0000000000
     38910      2978  MEOH      HO1           -22.4884586650       20.6030521140       29.2882477524  MEOH      2286            0.0000000000
     38911      2978  MEOH      HO2           -21.6886248622       19.4509176990       30.2277126973  MEOH      2286            0.0000000000
     38912      2978  MEOH      H1A           -23.4708301878       19.2860860947       31.6439547427  MEOH      2286            0.0000000000
     38913      2978  MEOH      H1B           -24.2819072879       20.5917108178       30.6880291540  MEOH      2286            0.0000000000
     38914      2978  MEOH      H1C           -22.7781294685       20.9539960814       31.6279244191  MEOH      2286            0.0000000000
     38915      2978  MEOH      LP1A          -22.1722172811       19.9086837147       29.9381973044  MEOH      2286            0.0000000000
     38916      2978  MEOH      LP1B          -22.7109264424       19.6882228832       29.6320297668  MEOH      2286            0.0000000000
     38917      2979  MEOH      C1             -5.2063359062       22.5402842366      -32.9074499689  MEOH      2287            0.0000000000
     38918      2979  MEOH      DC1            -5.2389934759       22.5279638266      -32.9199372054  MEOH      2287            0.0000000000
     38919      2979  MEOH      O1             -6.2068735541       22.0768861381      -33.8082082497  MEOH      2287            0.0000000000
     38920      2979  MEOH      DO1            -6.2348849653       22.0777979134      -33.8056778835  MEOH      2287            0.0000000000
     38921      2979  MEOH      HO1            -6.1330201678       22.6588486305      -34.5807141298  MEOH      2287            0.0000000000
     38922      2979  MEOH      HO2            -6.0210331146       21.1311167586      -33.9172202316  MEOH      2287            0.0000000000
     38923      2979  MEOH      H1A            -5.1756554344       21.8994778502      -32.0003960100  MEOH      2287            0.0000000000
     38924      2979  MEOH      H1B            -5.4147975844       23.5874205625      -32.6002525669  MEOH      2287            0.0000000000
     38925      2979  MEOH      H1C            -4.2040630526       22.5040786872      -33.3854241170  MEOH      2287            0.0000000000
     38926      2979  MEOH      LP1A           -6.0752721243       21.8271567572      -34.0151292490  MEOH      2287            0.0000000000
     38927      2979  MEOH      LP1B           -6.5097500718       22.2405851608      -33.7452126544  MEOH      2287            0.0000000000
     38928      2980  MEOH      C1            -13.8244121012      -25.7361061442       -4.6821993502  MEOH      2288            0.0000000000
     38929      2980  MEOH      DC1           -13.8253010223      -25.7404700331       -4.6811367470  MEOH      2288            0.0000000000
     38930      2980  MEOH      O1            -14.7521991971      -26.2034168220       -5.6636709017  MEOH      2288            0.0000000000
     38931      2980  MEOH      DO1           -14.7542663565      -26.2023588546       -5.6644304177  MEOH      2288            0.0000000000
     38932      2980  MEOH      HO1           -14.7758107339      -27.1714528693       -5.6066734771  MEOH      2288            0.0000000000
     38933      2980  MEOH      HO2           -15.5606162019      -25.6840253508       -5.5310268416  MEOH      2288            0.0000000000
     38934      2980  MEOH      H1A           -13.7383353290      -24.6310743350       -4.7584652656  MEOH      2288            0.0000000000
     38935      2980  MEOH      H1B           -12.8204716802      -26.1797050763       -4.8543754798  MEOH      2288            0.0000000000
     38936      2980  MEOH      H1C           -14.1767712727      -26.0022505769       -3.6627234281  MEOH      2288            0.0000000000
     38937      2980  MEOH      LP1A          -15.0739696715      -26.2182213800       -5.5267600298  MEOH      2288            0.0000000000
     38938      2980  MEOH      LP1B          -14.5879199508      -26.2560686512       -5.9682035176  MEOH      2288            0.0000000000
     38939      2981  MEOH      C1             27.9974276487       -3.8119138213       32.9460493210  MEOH      2289            0.0000000000
     38940      2981  MEOH      DC1            28.0104490800       -3.8251275560       32.9359980758  MEOH      2289            0.0000000000
     38941      2981  MEOH      O1             28.0627215153       -4.9890251296       33.7385175548  MEOH      2289            0.0000000000
     38942      2981  MEOH      DO1            28.0930488953       -5.0066536636       33.7196018916  MEOH      2289            0.0000000000
     38943      2981  MEOH      HO1            27.4638323764       -5.6531079294       33.3627172961  MEOH      2289            0.0000000000
     38944      2981  MEOH      HO2            28.9854723098       -5.1319433637       34.0012062500  MEOH      2289            0.0000000000
     38945      2981  MEOH      H1A            28.3142000072       -2.9493270330       33.5704853116  MEOH      2289            0.0000000000
     38946      2981  MEOH      H1B            26.9518539224       -3.6313850030       32.6166469398  MEOH      2289            0.0000000000
     38947      2981  MEOH      H1C            28.6624571462       -3.8897052641       32.0594799436  MEOH      2289            0.0000000000
     38948      2981  MEOH      LP1A           28.3162998736       -5.1991757937       33.6200493543  MEOH      2289            0.0000000000
     38949      2981  MEOH      LP1B           27.8278165156       -4.9722058495       33.9974321217  MEOH      2289            0.0000000000
     38950      2982  MEOH      C1             -5.6610936601      -26.0376030618      -21.2879477753  MEOH      2290            0.0000000000
     38951      2982  MEOH      DC1            -5.6460163763      -26.0370740158      -21.2798521090  MEOH      2290            0.0000000000
     38952      2982  MEOH      O1             -5.7061088463      -24.6595747541      -21.6506378234  MEOH      2290            0.0000000000
     38953      2982  MEOH      DO1            -5.7014852208      -24.6595622573      -21.6573239571  MEOH      2290            0.0000000000
     38954      2982  MEOH      HO1            -6.2010757693      -24.1935505318      -20.9587352506  MEOH      2290            0.0000000000
     38955      2982  MEOH      HO2            -4.7932580586      -24.4076205271      -21.8606914044  MEOH      2290            0.0000000000
     38956      2982  MEOH      H1A            -5.1699856956      -26.6237059850      -22.0939361937  MEOH      2290            0.0000000000
     38957      2982  MEOH      H1B            -6.6975328696      -26.4129136417      -21.1491791367  MEOH      2290            0.0000000000
     38958      2982  MEOH      H1C            -5.1002929142      -26.1691696766      -20.3379405386  MEOH      2290            0.0000000000
     38959      2982  MEOH      LP1A           -5.4271594639      -24.4925225095      -21.5210971363  MEOH      2290            0.0000000000
     38960      2982  MEOH      LP1B           -5.9865924515      -24.5975158776      -21.8505819233  MEOH      2290            0.0000000000
     38961      2983  MEOH      C1            -13.6429425546      -22.4696245679       -2.9718370258  MEOH      2291            0.0000000000
     38962      2983  MEOH      DC1           -13.6449707471      -22.4742008427       -2.9672139423  MEOH      2291            0.0000000000
     38963      2983  MEOH      O1            -12.6457672644      -21.5415233392       -2.5611573107  MEOH      2291            0.0000000000
     38964      2983  MEOH      DO1           -12.6509470337      -21.5488652842       -2.5547250460  MEOH      2291            0.0000000000
     38965      2983  MEOH      HO1           -12.9321585449      -20.6387773363       -2.7707514153  MEOH      2291            0.0000000000
     38966      2983  MEOH      HO2           -12.3937435137      -21.7918797155       -1.6585468102  MEOH      2291            0.0000000000
     38967      2983  MEOH      H1A           -13.2819701430      -23.5028077168       -2.7806499461  MEOH      2291            0.0000000000
     38968      2983  MEOH      H1B           -13.8492503581      -22.3536297008       -4.0573338158  MEOH      2291            0.0000000000
     38969      2983  MEOH      H1C           -14.5733615567      -22.3014391104       -2.3884373915  MEOH      2291            0.0000000000
     38970      2983  MEOH      LP1A          -12.7017223318      -21.4446356167       -2.2295222709  MEOH      2291            0.0000000000
     38971      2983  MEOH      LP1B          -12.4155305193      -21.4909046212       -2.8198632956  MEOH      2291            0.0000000000
     38972      2984  MEOH      C1             20.1615830679      -29.9851197395      -28.0044223341  MEOH      2292            0.0000000000
     38973      2984  MEOH      DC1            20.1396456450      -29.9885455788      -27.9880501412  MEOH      2292            0.0000000000
     38974      2984  MEOH      O1             19.6447295442      -29.2168252451      -26.9240557271  MEOH      2292            0.0000000000
     38975      2984  MEOH      DO1            19.6253809996      -29.2236964575      -26.9093110313  MEOH      2292            0.0000000000
     38976      2984  MEOH      HO1            19.2129784774      -28.4402888792      -27.3132629854  MEOH      2292            0.0000000000
     38977      2984  MEOH      HO2            19.2135905747      -29.8337668239      -26.3121715246  MEOH      2292            0.0000000000
     38978      2984  MEOH      H1A            20.8779660525      -30.7362208618      -27.6082361103  MEOH      2292            0.0000000000
     38979      2984  MEOH      H1B            20.6990142083      -29.3269714854      -28.7201943962  MEOH      2292            0.0000000000
     38980      2984  MEOH      H1C            19.3404209338      -30.5094626926      -28.5383495000  MEOH      2292            0.0000000000
     38981      2984  MEOH      LP1A           19.3200457327      -29.3222209520      -26.8467759271  MEOH      2292            0.0000000000
     38982      2984  MEOH      LP1B           19.8865256587      -28.9898842418      -26.8121074350  MEOH      2292            0.0000000000
     38983      2985  MEOH      C1              1.8826408432       32.8608640243       -6.6242211856  MEOH      2293            0.0000000000
     38984      2985  MEOH      DC1             1.8851170538       32.8729285029       -6.6299359553  MEOH      2293            0.0000000000
     38985      2985  MEOH      O1              1.5120601378       33.1434887077       -5.2735636610  MEOH      2293            0.0000000000
     38986      2985  MEOH      DO1             1.5158885337       33.1431152212       -5.2752546881  MEOH      2293            0.0000000000
     38987      2985  MEOH      HO1             1.5958972736       34.0985345311       -5.1260549800  MEOH      2293            0.0000000000
     38988      2985  MEOH      HO2             0.6547991848       32.7101212555       -5.1386699629  MEOH      2293            0.0000000000
     38989      2985  MEOH      H1A             1.8787610880       31.7607594707       -6.7793853523  MEOH      2293            0.0000000000
     38990      2985  MEOH      H1B             2.9041677754       33.2468452566       -6.8287259960  MEOH      2293            0.0000000000
     38991      2985  MEOH      H1C             1.1511515809       33.3168650733       -7.3251544939  MEOH      2293            0.0000000000
     38992      2985  MEOH      LP1A            1.1678150953       33.2035791163       -5.2539551537  MEOH      2293            0.0000000000
     38993      2985  MEOH      LP1B            1.7921718892       33.1195983893       -5.0650770682  MEOH      2293            0.0000000000
     38994      2986  MEOH      C1            -12.3011250946      -33.8573261210      -27.9690133406  MEOH      2294            0.0000000000
     38995      2986  MEOH      DC1           -12.3080336822      -33.8585676371      -27.9761539294  MEOH      2294            0.0000000000
     38996      2986  MEOH      O1            -11.3304060754      -34.2306246795      -26.9965658412  MEOH      2294            0.0000000000
     38997      2986  MEOH      DO1           -11.3358644633      -34.2205229497      -27.0002125333  MEOH      2294            0.0000000000
     38998      2986  MEOH      HO1           -11.7614271143      -34.2923955516      -26.1297871934  MEOH      2294            0.0000000000
     38999      2986  MEOH      HO2           -10.8736469180      -35.0039851377      -27.3628781039  MEOH      2294            0.0000000000
     39000      2986  MEOH      H1A           -11.7972080113      -33.7046278272      -28.9473138078  MEOH      2294            0.0000000000
     39001      2986  MEOH      H1B           -12.7918572563      -32.9085823822      -27.6634184040  MEOH      2294            0.0000000000
     39002      2986  MEOH      H1C           -13.0620369454      -34.6604412614      -28.0707002482  MEOH      2294            0.0000000000
     39003      2986  MEOH      LP1A          -11.3110746761      -34.5793914152      -26.9744737367  MEOH      2294            0.0000000000
     39004      2986  MEOH      LP1B          -11.1784404551      -33.9448853931      -26.8633010280  MEOH      2294            0.0000000000
     39005      2987  MEOH      C1             15.6412649104      -36.6319832283       -0.7013082882  MEOH      2295            0.0000000000
     39006      2987  MEOH      DC1            15.6534413488      -36.6257773191       -0.7083592576  MEOH      2295            0.0000000000
     39007      2987  MEOH      O1             14.2953055993      -37.0830250484       -0.8639423997  MEOH      2295            0.0000000000
     39008      2987  MEOH      DO1            14.2951484127      -37.0512911336       -0.8698549511  MEOH      2295            0.0000000000
     39009      2987  MEOH      HO1            14.3017470912      -37.7687982396       -1.5499261007  MEOH      2295            0.0000000000
     39010      2987  MEOH      HO2            14.0237205306      -37.3636972884        0.0239566059  MEOH      2295            0.0000000000
     39011      2987  MEOH      H1A            15.7125421401      -36.0295938690        0.2294804196  MEOH      2295            0.0000000000
     39012      2987  MEOH      H1B            15.9357192357      -35.9888418549       -1.5580385987  MEOH      2295            0.0000000000
     39013      2987  MEOH      H1C            16.3297602445      -37.4994856026       -0.6133605453  MEOH      2295            0.0000000000
     39014      2987  MEOH      LP1A           14.2299910044      -37.3468441087       -0.6434123401  MEOH      2295            0.0000000000
     39015      2987  MEOH      LP1B           14.1316398787      -36.8874115834       -1.1036274101  MEOH      2295            0.0000000000
     39016      2988  MEOH      C1             20.0221834725       18.2679097228       -0.6872636212  MEOH      2296            0.0000000000
     39017      2988  MEOH      DC1            20.0344711658       18.2761889476       -0.6802132740  MEOH      2296            0.0000000000
     39018      2988  MEOH      O1             21.1331796196       19.0042749504       -0.1648546604  MEOH      2296            0.0000000000
     39019      2988  MEOH      DO1            21.1414001201       19.0073313032       -0.1575121343  MEOH      2296            0.0000000000
     39020      2988  MEOH      HO1            21.7826641553       19.0600863819       -0.8831546833  MEOH      2296            0.0000000000
     39021      2988  MEOH      HO2            20.7569225679       19.8106386112        0.2212907496  MEOH      2296            0.0000000000
     39022      2988  MEOH      H1A            19.2676897915       18.0927075957        0.1092064034  MEOH      2296            0.0000000000
     39023      2988  MEOH      H1B            20.3601526755       17.2842439756       -1.0777754865  MEOH      2296            0.0000000000
     39024      2988  MEOH      H1C            19.5481266997       18.8296704146       -1.5203399093  MEOH      2296            0.0000000000
     39025      2988  MEOH      LP1A           21.0857465614       19.3468266479       -0.2187846106  MEOH      2296            0.0000000000
     39026      2988  MEOH      LP1B           21.3609953465       18.7858978997       -0.0134893464  MEOH      2296            0.0000000000
     39027      2989  MEOH      C1             36.9676081797      -11.7428842084      -19.0449202480  MEOH      2297            0.0000000000
     39028      2989  MEOH      DC1            36.9638265241      -11.7466828259      -19.0318873202  MEOH      2297            0.0000000000
     39029      2989  MEOH      O1             35.6881138617      -11.9181110414      -18.4327879427  MEOH      2297            0.0000000000
     39030      2989  MEOH      DO1            35.6829326431      -11.9185067610      -18.4182515058  MEOH      2297            0.0000000000
     39031      2989  MEOH      HO1            35.8106227028      -12.4044242506      -17.6024921843  MEOH      2297            0.0000000000
     39032      2989  MEOH      HO2            35.2303220619      -11.0644677809      -18.4839724401  MEOH      2297            0.0000000000
     39033      2989  MEOH      H1A            36.8348878259      -11.3821130628      -20.0872975742  MEOH      2297            0.0000000000
     39034      2989  MEOH      H1B            37.5172887668      -12.7079968586      -19.0719355248  MEOH      2297            0.0000000000
     39035      2989  MEOH      H1C            37.5599461294      -10.9929370048      -18.4783199082  MEOH      2297            0.0000000000
     39036      2989  MEOH      LP1A           35.6165135395      -11.6457246703      -18.2249922289  MEOH      2297            0.0000000000
     39037      2989  MEOH      LP1B           35.5404340430      -12.2142543488      -18.5467608021  MEOH      2297            0.0000000000
     39038      2990  MEOH      C1             16.7799209996        4.3477997615       18.2344578336  MEOH      2298            0.0000000000
     39039      2990  MEOH      DC1            16.7741475232        4.3635217589       18.2155306621  MEOH      2298            0.0000000000
     39040      2990  MEOH      O1             16.2812776442        5.2779732626       17.2731467109  MEOH      2298            0.0000000000
     39041      2990  MEOH      DO1            16.2828401707        5.2930653024       17.2622159636  MEOH      2298            0.0000000000
     39042      2990  MEOH      HO1            15.3776494123        4.9898413149       17.0698341440  MEOH      2298            0.0000000000
     39043      2990  MEOH      HO2            16.4369776322        6.1560798050       17.6547045886  MEOH      2298            0.0000000000
     39044      2990  MEOH      H1A            17.8455997191        4.5653742256       18.4609776326  MEOH      2298            0.0000000000
     39045      2990  MEOH      H1B            16.7076649468        3.3083977439       17.8487850308  MEOH      2298            0.0000000000
     39046      2990  MEOH      H1C            16.1968367082        4.4224291471       19.1772007278  MEOH      2298            0.0000000000
     39047      2990  MEOH      LP1A           16.1293975626        5.5482093921       17.4356424805  MEOH      2298            0.0000000000
     39048      2990  MEOH      LP1B           16.3595109602        5.1694002137       16.9497407102  MEOH      2298            0.0000000000
     39049      2991  MEOH      C1            -34.5198045015      -20.5579253328        2.4708457196  MEOH      2299            0.0000000000
     39050      2991  MEOH      DC1           -34.5137964293      -20.5592576978        2.4558543133  MEOH      2299            0.0000000000
     39051      2991  MEOH      O1            -33.2803016891      -20.8128190188        1.8033582427  MEOH      2299            0.0000000000
     39052      2991  MEOH      DO1           -33.2832783156      -20.8195244779        1.7895935624  MEOH      2299            0.0000000000
     39053      2991  MEOH      HO1           -32.5704444283      -20.4901206200        2.3803057387  MEOH      2299            0.0000000000
     39054      2991  MEOH      HO2           -33.3027083700      -21.7471076221        1.5435453361  MEOH      2299            0.0000000000
     39055      2991  MEOH      H1A           -35.3643624677      -20.8270967192        1.8010773954  MEOH      2299            0.0000000000
     39056      2991  MEOH      H1B           -34.6017593942      -19.4844048108        2.7449954687  MEOH      2299            0.0000000000
     39057      2991  MEOH      H1C           -34.5937222052      -21.1714622009        3.3941169064  MEOH      2299            0.0000000000
     39058      2991  MEOH      LP1A          -33.1624833130      -21.1315314565        1.8872701744  MEOH      2299            0.0000000000
     39059      2991  MEOH      LP1B          -33.1964022670      -20.5413975423        1.5989291130  MEOH      2299            0.0000000000
     39060      2992  MEOH      C1             36.0749470366        8.7126932110       12.5195945085  MEOH      2300            0.0000000000
     39061      2992  MEOH      DC1            36.0651847020        8.7232670981       12.5218031589  MEOH      2300            0.0000000000
     39062      2992  MEOH      O1             35.3760839040        9.9515337370       12.4354019146  MEOH      2300            0.0000000000
     39063      2992  MEOH      DO1            35.3700559858        9.9692420184       12.4391924083  MEOH      2300            0.0000000000
     39064      2992  MEOH      HO1            34.4692806404        9.7296880426       12.1719776751  MEOH      2300            0.0000000000
     39065      2992  MEOH      HO2            35.5770081575       10.4314334544       13.2540750518  MEOH      2300            0.0000000000
     39066      2992  MEOH      H1A            37.0678817709        8.8435908901       13.0004972152  MEOH      2300            0.0000000000
     39067      2992  MEOH      H1B            36.2039812062        8.2829443120       11.5032347948  MEOH      2300            0.0000000000
     39068      2992  MEOH      H1C            35.5399506219        8.0121233833       13.1958354070  MEOH      2300            0.0000000000
     39069      2992  MEOH      LP1A           35.2367454453       10.0317391591       12.7462907761  MEOH      2300            0.0000000000
     39070      2992  MEOH      LP1B           35.4075445146       10.0850807617       12.1134152345  MEOH      2300            0.0000000000
     39071      2993  MEOH      C1            -30.8571320102       -3.5006663884       19.6963286787  MEOH      2301            0.0000000000
     39072      2993  MEOH      DC1           -30.8739892906       -3.5096562535       19.6883238132  MEOH      2301            0.0000000000
     39073      2993  MEOH      O1            -32.1169172557       -3.3849967963       19.0350316587  MEOH      2301            0.0000000000
     39074      2993  MEOH      DO1           -32.1310449632       -3.3990247750       19.0252355205  MEOH      2301            0.0000000000
     39075      2993  MEOH      HO1           -32.5065476521       -2.5730059202       19.3952523844  MEOH      2301            0.0000000000
     39076      2993  MEOH      HO2           -31.9134307530       -3.4333027740       18.0878464728  MEOH      2301            0.0000000000
     39077      2993  MEOH      H1A           -30.2913768520       -4.3790502741       19.3185935183  MEOH      2301            0.0000000000
     39078      2993  MEOH      H1B           -31.0073854741       -3.6122824293       20.7914481955  MEOH      2301            0.0000000000
     39079      2993  MEOH      H1C           -30.2573266404       -2.5843477553       19.5094739667  MEOH      2301            0.0000000000
     39080      2993  MEOH      LP1A          -32.0795527393       -3.2056220300       18.7368226948  MEOH      2301            0.0000000000
     39081      2993  MEOH      LP1B          -32.3634238624       -3.5546572763       19.2165524960  MEOH      2301            0.0000000000
     39082      2994  MEOH      C1            -36.0551414302       -5.3110909217       26.7659933921  MEOH      2302            0.0000000000
     39083      2994  MEOH      DC1           -36.0595849765       -5.3075947769       26.7681862954  MEOH      2302            0.0000000000
     39084      2994  MEOH      O1            -35.1206117596       -6.3859261994       26.8283160973  MEOH      2302            0.0000000000
     39085      2994  MEOH      DO1           -35.1294983158       -6.3813165487       26.8279908282  MEOH      2302            0.0000000000
     39086      2994  MEOH      HO1           -34.2204302454       -6.0281982426       26.8793450194  MEOH      2302            0.0000000000
     39087      2994  MEOH      HO2           -35.4419696577       -6.9874013611       27.5181397931  MEOH      2302            0.0000000000
     39088      2994  MEOH      H1A           -37.0693025086       -5.7243312520       26.5788283918  MEOH      2302            0.0000000000
     39089      2994  MEOH      H1B           -35.7942373729       -4.6315027272       25.9267020489  MEOH      2302            0.0000000000
     39090      2994  MEOH      H1C           -36.0553372246       -4.7488011819       27.7241954649  MEOH      2302            0.0000000000
     39091      2994  MEOH      LP1A          -35.0659155659       -6.4778252766       27.1615770851  MEOH      2302            0.0000000000
     39092      2994  MEOH      LP1B          -35.0270130630       -6.4820682713       26.5050577084  MEOH      2302            0.0000000000
     39093      2995  MEOH      C1             17.1532828068      -34.0479423122       19.6656049863  MEOH      2303            0.0000000000
     39094      2995  MEOH      DC1            17.1531830945      -34.0488836341       19.6807222733  MEOH      2303            0.0000000000
     39095      2995  MEOH      O1             17.4150778986      -33.5290335246       20.9672665604  MEOH      2303            0.0000000000
     39096      2995  MEOH      DO1            17.4082613317      -33.5300865226       20.9833124677  MEOH      2303            0.0000000000
     39097      2995  MEOH      HO1            17.5229173905      -32.5728310147       20.8450069837  MEOH      2303            0.0000000000
     39098      2995  MEOH      HO2            16.7346935484      -33.9028868356       21.5488255337  MEOH      2303            0.0000000000
     39099      2995  MEOH      H1A            16.8473341000      -35.1120339103       19.7573952916  MEOH      2303            0.0000000000
     39100      2995  MEOH      H1B            18.0499265599      -33.9783089014       19.0132997141  MEOH      2303            0.0000000000
     39101      2995  MEOH      H1C            16.2712721894      -33.5631026293       19.1951703425  MEOH      2303            0.0000000000
     39102      2995  MEOH      LP1A           17.1141463495      -33.4482492623       21.1266845823  MEOH      2303            0.0000000000
     39103      2995  MEOH      LP1B           17.7592315205      -33.5332570578       21.0308310655  MEOH      2303            0.0000000000
     39104      2996  MEOH      C1             17.4845779137       26.1696282278       20.8032838519  MEOH      2304            0.0000000000
     39105      2996  MEOH      DC1            17.4991844806       26.1527595181       20.7978028178  MEOH      2304            0.0000000000
     39106      2996  MEOH      O1             17.8855361187       25.2103564342       19.8263951650  MEOH      2304            0.0000000000
     39107      2996  MEOH      DO1            17.9014020851       25.2028025970       19.8156131714  MEOH      2304            0.0000000000
     39108      2996  MEOH      HO1            18.7292100680       24.8446747044       20.1352497258  MEOH      2304            0.0000000000
     39109      2996  MEOH      HO2            17.1271159608       24.6132977738       19.7303752678  MEOH      2304            0.0000000000
     39110      2996  MEOH      H1A            16.4918981613       26.5869801846       20.5299246489  MEOH      2304            0.0000000000
     39111      2996  MEOH      H1B            18.2220636893       26.9992307990       20.8501379281  MEOH      2304            0.0000000000
     39112      2996  MEOH      H1C            17.3955929796       25.6911353233       21.8020066481  MEOH      2304            0.0000000000
     39113      2996  MEOH      LP1A           17.7526904572       24.8963359142       19.9054087284  MEOH      2304            0.0000000000
     39114      2996  MEOH      LP1B           18.0762097311       25.3656516730       19.5773430372  MEOH      2304            0.0000000000
     39115      2997  MEOH      C1             20.4224070344       -4.7963503689      -14.9678346298  MEOH      2305            0.0000000000
     39116      2997  MEOH      DC1            20.4211028079       -4.8208875896      -14.9544930642  MEOH      2305            0.0000000000
     39117      2997  MEOH      O1             20.8667805309       -3.6996872798      -15.7512727234  MEOH      2305            0.0000000000
     39118      2997  MEOH      DO1            20.8633402624       -3.7155206771      -15.7405433946  MEOH      2305            0.0000000000
     39119      2997  MEOH      HO1            21.4493069972       -4.0166373299      -16.4591608377  MEOH      2305            0.0000000000
     39120      2997  MEOH      HO2            20.0637515055       -3.2065105152      -15.9811010577  MEOH      2305            0.0000000000
     39121      2997  MEOH      H1A            19.7735372812       -4.4178007317      -14.1493059399  MEOH      2305            0.0000000000
     39122      2997  MEOH      H1B            21.2933779790       -5.3320730460      -14.5334018647  MEOH      2305            0.0000000000
     39123      2997  MEOH      H1C            19.8277520300       -5.4699635602      -15.6212500369  MEOH      2305            0.0000000000
     39124      2997  MEOH      LP1A           20.6411275922       -3.6395925356      -16.0119820883  MEOH      2305            0.0000000000
     39125      2997  MEOH      LP1B           21.1613680794       -3.5675919949      -15.6161098141  MEOH      2305            0.0000000000
     39126      2998  MEOH      C1            -17.4195671047       23.4989627818       27.8341960699  MEOH      2306            0.0000000000
     39127      2998  MEOH      DC1           -17.4237161923       23.4872764354       27.8539583110  MEOH      2306            0.0000000000
     39128      2998  MEOH      O1            -17.9278661644       22.5546698258       26.9034913692  MEOH      2306            0.0000000000
     39129      2998  MEOH      DO1           -17.9175676792       22.5456887902       26.9162138015  MEOH      2306            0.0000000000
     39130      2998  MEOH      HO1           -17.1915296455       22.1902457599       26.3878329243  MEOH      2306            0.0000000000
     39131      2998  MEOH      HO2           -18.5677962481       22.0005641141       27.3771540638  MEOH      2306            0.0000000000
     39132      2998  MEOH      H1A           -18.2336075152       24.1318783861       28.2478106840  MEOH      2306            0.0000000000
     39133      2998  MEOH      H1B           -16.7037459107       24.1727098119       27.3165224680  MEOH      2306            0.0000000000
     39134      2998  MEOH      H1C           -16.9221494408       22.9500416774       28.6621950366  MEOH      2306            0.0000000000
     39135      2998  MEOH      LP1A          -17.9387134358       22.2367106493       27.0493827630  MEOH      2306            0.0000000000
     39136      2998  MEOH      LP1B          -18.0133613706       22.7153401583       26.6045338238  MEOH      2306            0.0000000000
     39137      2999  MEOH      C1              9.7858873060        2.6515358148       11.8574242758  MEOH      2307            0.0000000000
     39138      2999  MEOH      DC1             9.7897900565        2.6519146936       11.8342819264  MEOH      2307            0.0000000000
     39139      2999  MEOH      O1             11.0122813884        3.0075576835       12.4987999731  MEOH      2307            0.0000000000
     39140      2999  MEOH      DO1            11.0085717693        3.0159069795       12.4797032656  MEOH      2307            0.0000000000
     39141      2999  MEOH      HO1            11.0712989509        3.9750214426       12.5366259180  MEOH      2307            0.0000000000
     39142      2999  MEOH      HO2            11.0125520552        2.5202982479       13.3375360286  MEOH      2307            0.0000000000
     39143      2999  MEOH      H1A             9.6813612848        1.5456796842       11.8792767164  MEOH      2307            0.0000000000
     39144      2999  MEOH      H1B             9.7800368328        2.9762036925       10.7949377853  MEOH      2307            0.0000000000
     39145      2999  MEOH      H1C             8.9278152301        3.1072926691       12.3962368618  MEOH      2307            0.0000000000
     39146      2999  MEOH      LP1A           10.9643939710        3.0296855695       12.8448016377  MEOH      2307            0.0000000000
     39147      2999  MEOH      LP1B           11.2682025701        3.0339581644       12.2615082468  MEOH      2307            0.0000000000
     39148      3000  MEOH      C1            -12.0978669443      -24.5422534745       31.4891292986  MEOH      2308            0.0000000000
     39149      3000  MEOH      DC1           -12.0757432422      -24.5435105499       31.4944161685  MEOH      2308            0.0000000000
     39150      3000  MEOH      O1            -13.0959716586      -25.1208606017       30.6511564609  MEOH      2308            0.0000000000
     39151      3000  MEOH      DO1           -13.0635972254      -25.1259060286       30.6480113762  MEOH      2308            0.0000000000
     39152      3000  MEOH      HO1           -13.3367907102      -25.9930528364       31.0007088747  MEOH      2308            0.0000000000
     39153      3000  MEOH      HO2           -13.8025148901      -24.4574163926       30.6119334415  MEOH      2308            0.0000000000
     39154      3000  MEOH      H1A           -11.9022233891      -23.5013857283       31.1535120551  MEOH      2308            0.0000000000
     39155      3000  MEOH      H1B           -11.1610610494      -25.1360521508       31.4249510417  MEOH      2308            0.0000000000
     39156      3000  MEOH      H1C           -12.4622764055      -24.5077361012       32.5380979807  MEOH      2308            0.0000000000
     39157      3000  MEOH      LP1A          -13.4143949372      -25.0262418740       30.7614012432  MEOH      2308            0.0000000000
     39158      3000  MEOH      LP1B          -12.9448972949      -25.3033183651       30.3935022330  MEOH      2308            0.0000000000
     39159      3001  MEOH      C1              7.6176177765       19.5029888259       36.4488498544  MEOH      2309            0.0000000000
     39160      3001  MEOH      DC1             7.5993579275       19.5139285495       36.4315721163  MEOH      2309            0.0000000000
     39161      3001  MEOH      O1              7.3999310314       18.2611747109       35.7693560117  MEOH      2309            0.0000000000
     39162      3001  MEOH      DO1             7.3833977392       18.2736392827       35.7593405684  MEOH      2309            0.0000000000
     39163      3001  MEOH      HO1             7.7704019609       17.5678327722       36.3376237718  MEOH      2309            0.0000000000
     39164      3001  MEOH      HO2             6.4591250215       18.2401671381       35.5341056478  MEOH      2309            0.0000000000
     39165      3001  MEOH      H1A             7.5058280027       20.3612696882       35.7523026484  MEOH      2309            0.0000000000
     39166      3001  MEOH      H1B             8.6455560121       19.5239234145       36.8698317155  MEOH      2309            0.0000000000
     39167      3001  MEOH      H1C             6.9022262055       19.6089333684       37.2922427960  MEOH      2309            0.0000000000
     39168      3001  MEOH      LP1A            7.0886918940       18.1285822073       35.8590746128  MEOH      2309            0.0000000000
     39169      3001  MEOH      LP1B            7.6696917026       18.1917910498       35.5574242118  MEOH      2309            0.0000000000
     39170      3002  MEOH      C1            -26.9771008238        4.7173700967       11.1870456866  MEOH      2310            0.0000000000
     39171      3002  MEOH      DC1           -26.9854974745        4.7100176673       11.1750643740  MEOH      2310            0.0000000000
     39172      3002  MEOH      O1            -26.4535895055        4.7024721320        9.8570909380  MEOH      2310            0.0000000000
     39173      3002  MEOH      DO1           -26.4626704394        4.6873681135        9.8401977737  MEOH      2310            0.0000000000
     39174      3002  MEOH      HO1           -25.6122991545        5.1844217710        9.8863328710  MEOH      2310            0.0000000000
     39175      3002  MEOH      HO2           -26.5382476425        3.7996951993        9.5125233665  MEOH      2310            0.0000000000
     39176      3002  MEOH      H1A           -28.0690465945        4.5126559903       11.1788256833  MEOH      2310            0.0000000000
     39177      3002  MEOH      H1B           -26.8094171401        5.7028481185       11.6718510629  MEOH      2310            0.0000000000
     39178      3002  MEOH      H1C           -26.4547836045        3.9510916262       11.7988651281  MEOH      2310            0.0000000000
     39179      3002  MEOH      LP1A          -26.2558489512        4.4176382054        9.8094641868  MEOH      2310            0.0000000000
     39180      3002  MEOH      LP1B          -26.5727813533        4.9788255874        9.6784234505  MEOH      2310            0.0000000000
     39181      3003  MEOH      C1            -14.4300100890       30.0747033698        0.1285371455  MEOH      2311            0.0000000000
     39182      3003  MEOH      DC1           -14.4257534115       30.0815491918        0.1375337245  MEOH      2311            0.0000000000
     39183      3003  MEOH      O1            -13.7788729094       31.2695965550        0.5607618405  MEOH      2311            0.0000000000
     39184      3003  MEOH      DO1           -13.7846720328       31.2785237574        0.5788753013  MEOH      2311            0.0000000000
     39185      3003  MEOH      HO1           -14.0448266494       31.9801137380       -0.0436667665  MEOH      2311            0.0000000000
     39186      3003  MEOH      HO2           -13.8906986036       31.3225504256        1.5228381903  MEOH      2311            0.0000000000
     39187      3003  MEOH      H1A           -13.9821235521       29.1985937346        0.6444349636  MEOH      2311            0.0000000000
     39188      3003  MEOH      H1B           -14.3018282778       29.9438549746       -0.9672589674  MEOH      2311            0.0000000000
     39189      3003  MEOH      H1C           -15.5141385275       30.1251161680        0.3661188760  MEOH      2311            0.0000000000
     39190      3003  MEOH      LP1A          -13.9779595244       31.4362115146        0.7955041992  MEOH      2311            0.0000000000
     39191      3003  MEOH      LP1B          -13.4656608346       31.2975450278        0.4070833479  MEOH      2311            0.0000000000
     39192      3004  MEOH      C1            -15.6924149725        2.2326947896       -9.9511853173  MEOH      2312            0.0000000000
     39193      3004  MEOH      DC1           -15.7037268365        2.2313987460       -9.9504641912  MEOH      2312            0.0000000000
     39194      3004  MEOH      O1            -14.7644695411        1.7642663908       -8.9685080879  MEOH      2312            0.0000000000
     39195      3004  MEOH      DO1           -14.7903140731        1.7531351713       -8.9583677112  MEOH      2312            0.0000000000
     39196      3004  MEOH      HO1           -13.9194948919        1.6042758189       -9.4171960187  MEOH      2312            0.0000000000
     39197      3004  MEOH      HO2           -14.8176008241        2.3886650021       -8.2281004695  MEOH      2312            0.0000000000
     39198      3004  MEOH      H1A           -16.7040817754        2.3110503760       -9.4987345641  MEOH      2312            0.0000000000
     39199      3004  MEOH      H1B           -15.7302796775        1.5221171220      -10.8043949299  MEOH      2312            0.0000000000
     39200      3004  MEOH      H1C           -15.3883069915        3.2383356563      -10.3124688389  MEOH      2312            0.0000000000
     39201      3004  MEOH      LP1A          -14.5995637488        2.0353335739       -8.8207628276  MEOH      2312            0.0000000000
     39202      3004  MEOH      LP1B          -14.7821985960        1.4155956962       -8.9437204438  MEOH      2312            0.0000000000
     39203      3005  MEOH      C1             10.1689196530      -36.7098914324      -11.4900764364  MEOH      2313            0.0000000000
     39204      3005  MEOH      DC1            10.1779266783      -36.7038691831      -11.4969327964  MEOH      2313            0.0000000000
     39205      3005  MEOH      O1             10.9977497447      -35.5428090394      -11.4142715138  MEOH      2313            0.0000000000
     39206      3005  MEOH      DO1            10.9798734008      -35.5268535798      -11.4291364907  MEOH      2313            0.0000000000
     39207      3005  MEOH      HO1            11.4422724662      -35.3949261780      -12.2636419921  MEOH      2313            0.0000000000
     39208      3005  MEOH      HO2            10.4901023227      -34.8579156618      -10.9515457225  MEOH      2313            0.0000000000
     39209      3005  MEOH      H1A             9.8457984503      -37.0072706075      -10.4695474969  MEOH      2313            0.0000000000
     39210      3005  MEOH      H1B            10.7285722867      -37.5535998584      -11.9475324692  MEOH      2313            0.0000000000
     39211      3005  MEOH      H1C             9.2522316295      -36.5042099013      -12.0831187413  MEOH      2313            0.0000000000
     39212      3005  MEOH      LP1A           10.8129931763      -35.2588582168      -11.5022313957  MEOH      2313            0.0000000000
     39213      3005  MEOH      LP1B           11.3177587386      -35.6302871613      -11.3027285984  MEOH      2313            0.0000000000
     39214      3006  MEOH      C1            -33.4217737632       15.3236684449       -6.8725129711  MEOH      2314            0.0000000000
     39215      3006  MEOH      DC1           -33.4194174476       15.3215805024       -6.8715165073  MEOH      2314            0.0000000000
     39216      3006  MEOH      O1            -32.6522599261       14.1289853264       -6.9719919418  MEOH      2314            0.0000000000
     39217      3006  MEOH      DO1           -32.6472126088       14.1319917405       -6.9654419766  MEOH      2314            0.0000000000
     39218      3006  MEOH      HO1           -32.0452729593       14.0899412138       -6.2163846497  MEOH      2314            0.0000000000
     39219      3006  MEOH      HO2           -33.2887619676       13.4128736644       -7.1234820027  MEOH      2314            0.0000000000
     39220      3006  MEOH      H1A           -34.1893383131       15.3020484667       -7.6754440011  MEOH      2314            0.0000000000
     39221      3006  MEOH      H1B           -32.7774731237       16.2208163485       -6.9921930652  MEOH      2314            0.0000000000
     39222      3006  MEOH      H1C           -33.9515483907       15.3656758919       -5.8968617936  MEOH      2314            0.0000000000
     39223      3006  MEOH      LP1A          -32.8178611826       13.8661546765       -6.8107583433  MEOH      2314            0.0000000000
     39224      3006  MEOH      LP1B          -32.3628308679       14.1882976698       -7.1596428577  MEOH      2314            0.0000000000
     39225      3007  MEOH      C1              2.0300256501       31.1525502036       12.1907166511  MEOH      2315            0.0000000000
     39226      3007  MEOH      DC1             2.0106803754       31.1535864603       12.1879798754  MEOH      2315            0.0000000000
     39227      3007  MEOH      O1              0.9636373684       31.8361119259       12.8535892253  MEOH      2315            0.0000000000
     39228      3007  MEOH      DO1             0.9534457540       31.8416825670       12.8492582633  MEOH      2315            0.0000000000
     39229      3007  MEOH      HO1             1.3324336354       32.1512563550       13.6935733341  MEOH      2315            0.0000000000
     39230      3007  MEOH      HO2             0.6036889644       32.4645512456       12.2082976882  MEOH      2315            0.0000000000
     39231      3007  MEOH      H1A             1.6545640435       30.6777281879       11.2591085597  MEOH      2315            0.0000000000
     39232      3007  MEOH      H1B             2.4473001100       30.3647476315       12.8537175062  MEOH      2315            0.0000000000
     39233      3007  MEOH      H1C             2.8413249891       31.8666427722       11.9334498908  MEOH      2315            0.0000000000
     39234      3007  MEOH      LP1A            0.9609079506       32.1732702278       12.7596912500  MEOH      2315            0.0000000000
     39235      3007  MEOH      LP1B            0.7808132460       31.6111088383       13.0496732655  MEOH      2315            0.0000000000
     39236      3008  MEOH      C1              1.3650742877       21.3095595212      -17.5694897953  MEOH      2316            0.0000000000
     39237      3008  MEOH      DC1             1.3695309175       21.3051223598      -17.5733113784  MEOH      2316            0.0000000000
     39238      3008  MEOH      O1              1.6457910301       20.0961808689      -18.2585021848  MEOH      2316            0.0000000000
     39239      3008  MEOH      DO1             1.6548302632       20.0940453328      -18.2694554976  MEOH      2316            0.0000000000
     39240      3008  MEOH      HO1             1.6944521785       19.4148648908      -17.5697782701  MEOH      2316            0.0000000000
     39241      3008  MEOH      HO2             0.9533153924       20.0298738567      -18.9345057889  MEOH      2316            0.0000000000
     39242      3008  MEOH      H1A             1.2891706881       22.1421598630      -18.3011566013  MEOH      2316            0.0000000000
     39243      3008  MEOH      H1B             2.1700344578       21.5449999737      -16.8408417885  MEOH      2316            0.0000000000
     39244      3008  MEOH      H1C             0.4035604040       21.2136667643      -17.0212046213  MEOH      2316            0.0000000000
     39245      3008  MEOH      LP1A            1.3470306403       19.9409282588      -18.3540995516  MEOH      2316            0.0000000000
     39246      3008  MEOH      LP1B            1.9917953285       20.0530056286      -18.2887829396  MEOH      2316            0.0000000000
     39247      3009  MEOH      C1            -30.4536272533       14.6105724262        5.6041990121  MEOH      2317            0.0000000000
     39248      3009  MEOH      DC1           -30.4151384113       14.6361796584        5.6130439570  MEOH      2317            0.0000000000
     39249      3009  MEOH      O1            -29.7866826250       15.8427374164        5.9054470631  MEOH      2317            0.0000000000
     39250      3009  MEOH      DO1           -29.7617979890       15.8748061243        5.9362759445  MEOH      2317            0.0000000000
     39251      3009  MEOH      HO1           -30.3097007405       16.4888222555        5.4055206354  MEOH      2317            0.0000000000
     39252      3009  MEOH      HO2           -29.6480198000       15.8598052569        6.8653331552  MEOH      2317            0.0000000000
     39253      3009  MEOH      H1A           -29.8634002514       13.7297992935        5.9361504777  MEOH      2317            0.0000000000
     39254      3009  MEOH      H1B           -30.6025258961       14.5310698491        4.5060963145  MEOH      2317            0.0000000000
     39255      3009  MEOH      H1C           -31.4484334378       14.5759653033        6.0976399954  MEOH      2317            0.0000000000
     39256      3009  MEOH      LP1A          -29.9235024059       15.9854076997        6.1942818564  MEOH      2317            0.0000000000
     39257      3009  MEOH      LP1B          -29.5309405613       15.9002412822        5.6735218548  MEOH      2317            0.0000000000
     39258      3010  MEOH      C1             16.3970177543       21.5161380288       28.3644784665  MEOH      2318            0.0000000000
     39259      3010  MEOH      DC1            16.4051455155       21.5154807587       28.3565933524  MEOH      2318            0.0000000000
     39260      3010  MEOH      O1             15.3759608552       22.2326499294       29.0669493218  MEOH      2318            0.0000000000
     39261      3010  MEOH      DO1            15.3766580399       22.2454160797       29.0587646796  MEOH      2318            0.0000000000
     39262      3010  MEOH      HO1            15.7896532671       22.7023910236       29.8079634194  MEOH      2318            0.0000000000
     39263      3010  MEOH      HO2            14.8198416866       22.6688811853       28.4026197631  MEOH      2318            0.0000000000
     39264      3010  MEOH      H1A            15.9267237390       20.8209936028       27.6365232705  MEOH      2318            0.0000000000
     39265      3010  MEOH      H1B            16.9985281064       20.9183244873       29.0822007429  MEOH      2318            0.0000000000
     39266      3010  MEOH      H1C            17.0495172684       22.2298417906       27.8174937071  MEOH      2318            0.0000000000
     39267      3010  MEOH      LP1A           15.3367636411       22.5517029146       28.9284979907  MEOH      2318            0.0000000000
     39268      3010  MEOH      LP1B           15.2365444383       22.0294653173       29.3155032920  MEOH      2318            0.0000000000
     39269      3011  MEOH      C1             -9.8870345237      -19.9149687817      -19.5755681192  MEOH      2319            0.0000000000
     39270      3011  MEOH      DC1            -9.8867328476      -19.9262097048      -19.5742458291  MEOH      2319            0.0000000000
     39271      3011  MEOH      O1            -10.7741479018      -18.8450439753      -19.2437007153  MEOH      2319            0.0000000000
     39272      3011  MEOH      DO1           -10.7673246351      -18.8527060859      -19.2270117366  MEOH      2319            0.0000000000
     39273      3011  MEOH      HO1           -11.6851894517      -19.1778204173      -19.2309282992  MEOH      2319            0.0000000000
     39274      3011  MEOH      HO2           -10.3720967570      -18.3686294352      -18.5005425471  MEOH      2319            0.0000000000
     39275      3011  MEOH      H1A            -8.9045839819      -19.4943745189      -19.8792330657  MEOH      2319            0.0000000000
     39276      3011  MEOH      H1B           -10.2944693887      -20.5036447704      -20.4251435491  MEOH      2319            0.0000000000
     39277      3011  MEOH      H1C            -9.7424801852      -20.5807967385      -18.6980157405  MEOH      2319            0.0000000000
     39278      3011  MEOH      LP1A          -10.8128157414      -18.8249484840      -18.8964242125  MEOH      2319            0.0000000000
     39279      3011  MEOH      LP1B          -10.8751801941      -18.6787076321      -19.5346039584  MEOH      2319            0.0000000000
     39280      3012  MEOH      C1            -30.8791799253       -6.9530567368      -11.0972933662  MEOH      2320            0.0000000000
     39281      3012  MEOH      DC1           -30.8814002068       -6.9664923691      -11.0933877937  MEOH      2320            0.0000000000
     39282      3012  MEOH      O1            -31.1191098056       -6.7825775553       -9.7024607847  MEOH      2320            0.0000000000
     39283      3012  MEOH      DO1           -31.1290501316       -6.7854819291       -9.7010095417  MEOH      2320            0.0000000000
     39284      3012  MEOH      HO1           -31.2297092670       -5.8302583658       -9.5549618972  MEOH      2320            0.0000000000
     39285      3012  MEOH      HO2           -31.8119003292       -7.4163319239       -9.4589516663  MEOH      2320            0.0000000000
     39286      3012  MEOH      H1A           -30.5851713129       -8.0049502437      -11.3007632326  MEOH      2320            0.0000000000
     39287      3012  MEOH      H1B           -30.0579157647       -6.2806073669      -11.4254061872  MEOH      2320            0.0000000000
     39288      3012  MEOH      H1C           -31.7976769732       -6.7111018709      -11.6736110021  MEOH      2320            0.0000000000
     39289      3012  MEOH      LP1A          -31.4622217244       -6.8034348454       -9.6365882972  MEOH      2320            0.0000000000
     39290      3012  MEOH      LP1B          -30.8155025737       -6.7444400174       -9.5325544078  MEOH      2320            0.0000000000
     39291      3013  MEOH      C1             15.0446306045       36.5288938596       14.2337680193  MEOH      2321            0.0000000000
     39292      3013  MEOH      DC1            15.0599893679       36.5289934579       14.2448219661  MEOH      2321            0.0000000000
     39293      3013  MEOH      O1             15.9953555629       35.5443781448       13.8570651097  MEOH      2321            0.0000000000
     39294      3013  MEOH      DO1            16.0037667305       35.5312611472       13.8621244856  MEOH      2321            0.0000000000
     39295      3013  MEOH      HO1            16.6082863377       35.4484718387       14.6027311521  MEOH      2321            0.0000000000
     39296      3013  MEOH      HO2            15.4755894957       34.7945245940       13.5277280669  MEOH      2321            0.0000000000
     39297      3013  MEOH      H1A            14.3103281609       36.7201129538       13.4222532753  MEOH      2321            0.0000000000
     39298      3013  MEOH      H1B            15.5702136479       37.4854671169       14.4412555317  MEOH      2321            0.0000000000
     39299      3013  MEOH      H1C            14.4825528693       36.1771244358       15.1251982709  MEOH      2321            0.0000000000
     39300      3013  MEOH      LP1A           15.8808201426       35.2263892037       13.9479753451  MEOH      2321            0.0000000000
     39301      3013  MEOH      LP1B           16.2649740653       35.6951135544       13.6924908122  MEOH      2321            0.0000000000
     39302      3014  MEOH      C1              7.4388448104       14.3338443229       15.3561099074  MEOH      2322            0.0000000000
     39303      3014  MEOH      DC1             7.4514915124       14.3366337065       15.3602561944  MEOH      2322            0.0000000000
     39304      3014  MEOH      O1              6.1649860499       13.7120745841       15.1924309592  MEOH      2322            0.0000000000
     39305      3014  MEOH      DO1             6.1782265439       13.7206505375       15.1808410190  MEOH      2322            0.0000000000
     39306      3014  MEOH      HO1             6.2814515038       12.7504714028       15.2439588253  MEOH      2322            0.0000000000
     39307      3014  MEOH      HO2             5.5794762611       14.1433599580       15.8343586915  MEOH      2322            0.0000000000
     39308      3014  MEOH      H1A             7.3057038933       15.4328978789       15.2629660517  MEOH      2322            0.0000000000
     39309      3014  MEOH      H1B             8.1437565293       14.0024719289       14.5638897328  MEOH      2322            0.0000000000
     39310      3014  MEOH      H1C             7.8548752218       14.0971417046       16.3587123059  MEOH      2322            0.0000000000
     39311      3014  MEOH      LP1A            6.0081879715       13.6767499975       15.5033433845  MEOH      2322            0.0000000000
     39312      3014  MEOH      LP1B            6.1031514999       13.6534010786       14.8529697564  MEOH      2322            0.0000000000
     39313      3015  MEOH      C1            -14.0766362102      -27.2586076845       36.1606331013  MEOH      2323            0.0000000000
     39314      3015  MEOH      DC1           -14.0696178761      -27.2628064675       36.1618363971  MEOH      2323            0.0000000000
     39315      3015  MEOH      O1            -13.9974377780      -28.4388009658       35.4094805959  MEOH      2323            0.0000000000
     39316      3015  MEOH      DO1           -13.9991850500      -28.4442811567       35.4059165492  MEOH      2323            0.0000000000
     39317      3015  MEOH      HO1           -13.8136413732      -29.1469886875       36.0463393184  MEOH      2323            0.0000000000
     39318      3015  MEOH      HO2           -14.7960444339      -28.4536061164       34.8591096142  MEOH      2323            0.0000000000
     39319      3015  MEOH      H1A           -14.2522862647      -26.3744342996       35.5112445541  MEOH      2323            0.0000000000
     39320      3015  MEOH      H1B           -13.0898033131      -27.1529080715       36.6599420493  MEOH      2323            0.0000000000
     39321      3015  MEOH      H1C           -14.9005772640      -27.3369276969       36.9017863348  MEOH      2323            0.0000000000
     39322      3015  MEOH      LP1A          -14.3145913955      -28.5840619686       35.3809705272  MEOH      2323            0.0000000000
     39323      3015  MEOH      LP1B          -13.6688289606      -28.4892294442       35.3000584149  MEOH      2323            0.0000000000
     39324      3016  MEOH      C1             33.8428146057       15.0268294947       35.7202923266  MEOH      2324            0.0000000000
     39325      3016  MEOH      DC1            33.8454818581       15.0201897983       35.7136170771  MEOH      2324            0.0000000000
     39326      3016  MEOH      O1             32.4187940078       14.9662314906       35.6162631721  MEOH      2324            0.0000000000
     39327      3016  MEOH      DO1            32.4224965080       14.9639011168       35.5916887302  MEOH      2324            0.0000000000
     39328      3016  MEOH      HO1            32.1436006066       14.0755905811       35.8844559427  MEOH      2324            0.0000000000
     39329      3016  MEOH      HO2            32.0954584135       15.7182620938       36.1366515519  MEOH      2324            0.0000000000
     39330      3016  MEOH      H1A            34.1780538054       16.0730209554       35.5547051636  MEOH      2324            0.0000000000
     39331      3016  MEOH      H1B            34.3165441998       14.3680790570       34.9613792005  MEOH      2324            0.0000000000
     39332      3016  MEOH      H1C            34.1607031523       14.6954212862       36.7319426966  MEOH      2324            0.0000000000
     39333      3016  MEOH      LP1A           32.2723164607       15.0687480956       35.9171529757  MEOH      2324            0.0000000000
     39334      3016  MEOH      LP1B           32.3265071180       14.8644642717       35.2943523721  MEOH      2324            0.0000000000
     39335      3017  MEOH      C1            -33.5446262707        3.5048465686       27.3293959352  MEOH      2325            0.0000000000
     39336      3017  MEOH      DC1           -33.5553230543        3.5094878869       27.3299779805  MEOH      2325            0.0000000000
     39337      3017  MEOH      O1            -34.6874459051        3.7424000142       26.5051518797  MEOH      2325            0.0000000000
     39338      3017  MEOH      DO1           -34.6951072180        3.7430691367       26.5021461511  MEOH      2325            0.0000000000
     39339      3017  MEOH      HO1           -35.1666926862        2.9025801906       26.4281766457  MEOH      2325            0.0000000000
     39340      3017  MEOH      HO2           -35.1228699844        4.5320319150       26.8626254213  MEOH      2325            0.0000000000
     39341      3017  MEOH      H1A           -32.9117846065        4.4172793309       27.3654359598  MEOH      2325            0.0000000000
     39342      3017  MEOH      H1B           -32.9372388003        2.6732546044       26.9124351865  MEOH      2325            0.0000000000
     39343      3017  MEOH      H1C           -33.8693264329        3.2444514597       28.3594858314  MEOH      2325            0.0000000000
     39344      3017  MEOH      LP1A          -34.9581725709        3.8440906247       26.7022967304  MEOH      2325            0.0000000000
     39345      3017  MEOH      LP1B          -34.6051115690        3.6915133433       26.1688014615  MEOH      2325            0.0000000000
     39346      3018  MEOH      C1            -30.1117210988      -10.6240476888       27.1474649845  MEOH      2326            0.0000000000
     39347      3018  MEOH      DC1           -30.1173196122      -10.6142869113       27.1498595920  MEOH      2326            0.0000000000
     39348      3018  MEOH      O1            -30.7391058993      -11.0604025624       28.3561852976  MEOH      2326            0.0000000000
     39349      3018  MEOH      DO1           -30.7510724481      -11.0541220006       28.3585212918  MEOH      2326            0.0000000000
     39350      3018  MEOH      HO1           -30.3737678752      -11.9417256397       28.5313930641  MEOH      2326            0.0000000000
     39351      3018  MEOH      HO2           -30.5987052158      -10.3471435756       28.9984074295  MEOH      2326            0.0000000000
     39352      3018  MEOH      H1A           -30.5067368242       -9.6319326934       26.8408847949  MEOH      2326            0.0000000000
     39353      3018  MEOH      H1B           -30.3191931591      -11.3507981021       26.3331492087  MEOH      2326            0.0000000000
     39354      3018  MEOH      H1C           -29.0134502013      -10.5550291111       27.3002997720  MEOH      2326            0.0000000000
     39355      3018  MEOH      LP1A          -30.5514732212      -10.9564223080       28.6327392431  MEOH      2326            0.0000000000
     39356      3018  MEOH      LP1B          -31.0376397133      -11.2275814890       28.2825051209  MEOH      2326            0.0000000000
     39357      3019  MEOH      C1             14.3303760097      -12.1035541480      -32.0553181165  MEOH      2327            0.0000000000
     39358      3019  MEOH      DC1            14.3323669903      -12.1126467420      -32.0611288520  MEOH      2327            0.0000000000
     39359      3019  MEOH      O1             13.2802423780      -11.6759393827      -31.1911862314  MEOH      2327            0.0000000000
     39360      3019  MEOH      DO1            13.2723887209      -11.6912077156      -31.2000811690  MEOH      2327            0.0000000000
     39361      3019  MEOH      HO1            13.5542445686      -10.8406526692      -30.7811631754  MEOH      2327            0.0000000000
     39362      3019  MEOH      HO2            12.4491795375      -11.7685381057      -31.6827755231  MEOH      2327            0.0000000000
     39363      3019  MEOH      H1A            14.1776908389      -13.1732880962      -32.3135380224  MEOH      2327            0.0000000000
     39364      3019  MEOH      H1B            15.3079985778      -11.9857504627      -31.5408305985  MEOH      2327            0.0000000000
     39365      3019  MEOH      H1C            14.3252986363      -11.4953415831      -32.9850345778  MEOH      2327            0.0000000000
     39366      3019  MEOH      LP1A           13.0524804317      -11.4779525330      -31.3684591937  MEOH      2327            0.0000000000
     39367      3019  MEOH      LP1B           13.3255177287      -11.8113900711      -30.8716502340  MEOH      2327            0.0000000000
     39368      3020  MEOH      C1              0.6919908143       -8.7119043421      -22.6131811353  MEOH      2328            0.0000000000
     39369      3020  MEOH      DC1             0.6984533105       -8.6966831752      -22.6273251201  MEOH      2328            0.0000000000
     39370      3020  MEOH      O1              0.4580210723       -9.9935450422      -22.0291088631  MEOH      2328            0.0000000000
     39371      3020  MEOH      DO1             0.4648451659       -9.9863218900      -22.0366330811  MEOH      2328            0.0000000000
     39372      3020  MEOH      HO1             1.3070927184      -10.4590460769      -21.9717841176  MEOH      2328            0.0000000000
     39373      3020  MEOH      HO2            -0.0622060436       -9.8331418204      -21.2262797687  MEOH      2328            0.0000000000
     39374      3020  MEOH      H1A            -0.2684624073       -8.1684588808      -22.7417021024  MEOH      2328            0.0000000000
     39375      3020  MEOH      H1B             1.1734879039       -8.8462425044      -23.6053680183  MEOH      2328            0.0000000000
     39376      3020  MEOH      H1C             1.3474504424       -8.1132993647      -21.9450750391  MEOH      2328            0.0000000000
     39377      3020  MEOH      LP1A            0.4823885703       -9.9725207613      -21.6805917120  MEOH      2328            0.0000000000
     39378      3020  MEOH      LP1B            0.3832285149      -10.2270627518      -22.2788598444  MEOH      2328            0.0000000000
     39379      3021  MEOH      C1             13.2180168407      -33.3821548535       15.1903416781  MEOH      2329            0.0000000000
     39380      3021  MEOH      DC1            13.1945057837      -33.3632226885       15.1918040026  MEOH      2329            0.0000000000
     39381      3021  MEOH      O1             11.9161564885      -33.3800241933       15.7716703486  MEOH      2329            0.0000000000
     39382      3021  MEOH      DO1            11.9038141773      -33.3525325533       15.7841902334  MEOH      2329            0.0000000000
     39383      3021  MEOH      HO1            11.2915438024      -33.1984616633       15.0520912763  MEOH      2329            0.0000000000
     39384      3021  MEOH      HO2            11.8384824906      -34.2601764886       16.1719186305  MEOH      2329            0.0000000000
     39385      3021  MEOH      H1A            13.9584890863      -33.7900414037       15.9112095006  MEOH      2329            0.0000000000
     39386      3021  MEOH      H1B            13.5445867606      -32.3524207699       14.9308791467  MEOH      2329            0.0000000000
     39387      3021  MEOH      H1C            13.2157182254      -34.0236540226       14.2832614543  MEOH      2329            0.0000000000
     39388      3021  MEOH      LP1A           11.7825765319      -33.7035010959       15.7673012903  MEOH      2329            0.0000000000
     39389      3021  MEOH      LP1B           11.8357153740      -33.0584266980       15.8839391249  MEOH      2329            0.0000000000
     39390      3022  MEOH      C1             -8.4092979144      -21.3642882838        9.5893117310  MEOH      2330            0.0000000000
     39391      3022  MEOH      DC1            -8.4117662034      -21.3578100611        9.5823405359  MEOH      2330            0.0000000000
     39392      3022  MEOH      O1             -9.5117102822      -22.2505214007        9.7569230995  MEOH      2330            0.0000000000
     39393      3022  MEOH      DO1            -9.5155407839      -22.2379094495        9.7606953725  MEOH      2330            0.0000000000
     39394      3022  MEOH      HO1            -9.2868581882      -22.8856884732       10.4547084007  MEOH      2330            0.0000000000
     39395      3022  MEOH      HO2           -10.3146427764      -21.7064043914        9.7685888593  MEOH      2330            0.0000000000
     39396      3022  MEOH      H1A            -8.5141864601      -20.8035275100        8.6359667001  MEOH      2330            0.0000000000
     39397      3022  MEOH      H1B            -7.4535876396      -21.9303520689        9.5667138536  MEOH      2330            0.0000000000
     39398      3022  MEOH      H1C            -8.4135093465      -20.6430798545       10.4343925943  MEOH      2330            0.0000000000
     39399      3022  MEOH      LP1A           -9.7355005111      -22.1200256866        9.9922713564  MEOH      2330            0.0000000000
     39400      3022  MEOH      LP1B           -9.4789450345      -22.5244166046        9.5414982731  MEOH      2330            0.0000000000
     39401      3023  MEOH      C1             -8.5645991705       26.0336141903      -15.0939574336  MEOH      2331            0.0000000000
     39402      3023  MEOH      DC1            -8.5660762934       26.0365245663      -15.0889379756  MEOH      2331            0.0000000000
     39403      3023  MEOH      O1             -9.6598076369       25.1312898434      -14.9469269676  MEOH      2331            0.0000000000
     39404      3023  MEOH      DO1            -9.6555684031       25.1274025383      -14.9439152130  MEOH      2331            0.0000000000
     39405      3023  MEOH      HO1            -9.8191856544       24.7366742215      -15.8185789395  MEOH      2331            0.0000000000
     39406      3023  MEOH      HO2            -9.4568383883       24.5845909287      -14.1717987326  MEOH      2331            0.0000000000
     39407      3023  MEOH      H1A            -8.4644285678       26.6374121363      -14.1667493174  MEOH      2331            0.0000000000
     39408      3023  MEOH      H1B            -8.7471385277       26.7270213298      -15.9425957102  MEOH      2331            0.0000000000
     39409      3023  MEOH      H1C            -7.6231858260       25.4714299475      -15.2728730356  MEOH      2331            0.0000000000
     39410      3023  MEOH      LP1A           -9.5423047794       24.8139929906      -14.8573960472  MEOH      2331            0.0000000000
     39411      3023  MEOH      LP1B           -9.9618128554       25.2998352339      -15.0006419497  MEOH      2331            0.0000000000
     39412      3024  MEOH      C1            -13.2941194796        5.1281608525       -4.4919161969  MEOH      2332            0.0000000000
     39413      3024  MEOH      DC1           -13.3170553961        5.1330573558       -4.4865184566  MEOH      2332            0.0000000000
     39414      3024  MEOH      O1            -13.7996381850        5.4419712020       -3.1968879763  MEOH      2332            0.0000000000
     39415      3024  MEOH      DO1           -13.8168740005        5.4477339130       -3.1921848371  MEOH      2332            0.0000000000
     39416      3024  MEOH      HO1           -14.6971426303        5.7912490931       -3.3126062793  MEOH      2332            0.0000000000
     39417      3024  MEOH      HO2           -13.6377710265        4.6559083893       -2.6520905107  MEOH      2332            0.0000000000
     39418      3024  MEOH      H1A           -12.2452276394        4.7698537444       -4.4160022728  MEOH      2332            0.0000000000
     39419      3024  MEOH      H1B           -13.3080134314        6.0377832939       -5.1296582875  MEOH      2332            0.0000000000
     39420      3024  MEOH      H1C           -13.9153210060        4.3376055168       -4.9646232158  MEOH      2332            0.0000000000
     39421      3024  MEOH      LP1A          -13.9589814805        5.1622351892       -3.0595654461  MEOH      2332            0.0000000000
     39422      3024  MEOH      LP1B          -13.7153614153        5.7708842703       -3.1119549461  MEOH      2332            0.0000000000
     39423      3025  MEOH      C1             12.3490564922      -15.4240989475        1.2249715328  MEOH      2333            0.0000000000
     39424      3025  MEOH      DC1            12.3553048950      -15.4148391899        1.2168703326  MEOH      2333            0.0000000000
     39425      3025  MEOH      O1             12.9325892698      -14.1300460788        1.0376521145  MEOH      2333            0.0000000000
     39426      3025  MEOH      DO1            12.9433855069      -14.1180776183        1.0279339183  MEOH      2333            0.0000000000
     39427      3025  MEOH      HO1            13.6016022584      -14.0366978732        1.7337898414  MEOH      2333            0.0000000000
     39428      3025  MEOH      HO2            13.1644894696      -14.0679671142        0.0978284611  MEOH      2333            0.0000000000
     39429      3025  MEOH      H1A            11.4631641446      -15.5378188055        0.5642268451  MEOH      2333            0.0000000000
     39430      3025  MEOH      H1B            12.0246916812      -15.5495706416        2.2801328122  MEOH      2333            0.0000000000
     39431      3025  MEOH      H1C            13.0880592283      -16.2187036045        0.9866452952  MEOH      2333            0.0000000000
     39432      3025  MEOH      LP1A           13.2040172845      -14.1518193012        0.8177595051  MEOH      2333            0.0000000000
     39433      3025  MEOH      LP1B           12.7518326258      -13.8900889997        1.2172283819  MEOH      2333            0.0000000000
     39434      3026  MEOH      C1             14.5429184837      -36.7006483305        4.0891987352  MEOH      2334            0.0000000000
     39435      3026  MEOH      DC1            14.5520562241      -36.6904741840        4.0827132647  MEOH      2334            0.0000000000
     39436      3026  MEOH      O1             13.6728361084      -36.6326499274        5.2223076785  MEOH      2334            0.0000000000
     39437      3026  MEOH      DO1            13.6825563512      -36.6315588090        5.2174663596  MEOH      2334            0.0000000000
     39438      3026  MEOH      HO1            13.2989237603      -37.5078946143        5.4094875236  MEOH      2334            0.0000000000
     39439      3026  MEOH      HO2            14.1249180000      -36.1030159729        5.8975926833  MEOH      2334            0.0000000000
     39440      3026  MEOH      H1A            14.8808719709      -35.6763249475        3.8229844454  MEOH      2334            0.0000000000
     39441      3026  MEOH      H1B            14.0026826280      -37.0988173778        3.2038018581  MEOH      2334            0.0000000000
     39442      3026  MEOH      H1C            15.4127744146      -37.3558393458        4.3091905416  MEOH      2334            0.0000000000
     39443      3026  MEOH      LP1A           13.8547035716      -36.6871951497        5.5163298623  MEOH      2334            0.0000000000
     39444      3026  MEOH      LP1B           13.3474734825      -36.5554880727        5.1189383898  MEOH      2334            0.0000000000
     39445      3027  MEOH      C1              4.1541302664       22.1826028835       16.3883406166  MEOH      2335            0.0000000000
     39446      3027  MEOH      DC1             4.1388971180       22.1922701548       16.3983015604  MEOH      2335            0.0000000000
     39447      3027  MEOH      O1              3.2096785339       22.6659247615       17.3470551741  MEOH      2335            0.0000000000
     39448      3027  MEOH      DO1             3.1943780071       22.6760593507       17.3557966451  MEOH      2335            0.0000000000
     39449      3027  MEOH      HO1             3.0386612809       21.9069274492       17.9263445483  MEOH      2335            0.0000000000
     39450      3027  MEOH      HO2             3.6048252591       23.4720672134       17.7143335608  MEOH      2335            0.0000000000
     39451      3027  MEOH      H1A             4.4087009577       22.9667783012       15.6436368651  MEOH      2335            0.0000000000
     39452      3027  MEOH      H1B             3.7290231435       21.3093249024       15.8489052608  MEOH      2335            0.0000000000
     39453      3027  MEOH      H1C             5.0859927286       21.8545815148       16.8966272813  MEOH      2335            0.0000000000
     39454      3027  MEOH      LP1A            3.3775572130       22.8054113927       17.6206611478  MEOH      2335            0.0000000000
     39455      3027  MEOH      LP1B            2.8837846912       22.6176558068       17.2288887184  MEOH      2335            0.0000000000
     39456      3028  MEOH      C1            -16.5164449157        4.6674450007       34.1151934489  MEOH      2336            0.0000000000
     39457      3028  MEOH      DC1           -16.5130780859        4.6847579056       34.1000421642  MEOH      2336            0.0000000000
     39458      3028  MEOH      O1            -17.4272470558        4.1841220024       35.0974561058  MEOH      2336            0.0000000000
     39459      3028  MEOH      DO1           -17.4280755081        4.1850445423       35.0824198994  MEOH      2336            0.0000000000
     39460      3028  MEOH      HO1           -18.3237497025        4.4864512036       34.8834933554  MEOH      2336            0.0000000000
     39461      3028  MEOH      HO2           -17.2322530020        3.2398050528       35.2030156548  MEOH      2336            0.0000000000
     39462      3028  MEOH      H1A           -15.4842336542        4.3358019412       34.3578326747  MEOH      2336            0.0000000000
     39463      3028  MEOH      H1B           -16.5444976502        5.7779718296       34.1314478937  MEOH      2336            0.0000000000
     39464      3028  MEOH      H1C           -16.7808848165        4.2706768540       33.1117157079  MEOH      2336            0.0000000000
     39465      3028  MEOH      LP1A          -17.5483483366        3.8693672107       35.0038403975  MEOH      2336            0.0000000000
     39466      3028  MEOH      LP1B          -17.4506099912        4.4124495248       35.3616922043  MEOH      2336            0.0000000000
     39467      3029  MEOH      C1             11.8423931581       19.0373853035       35.7332161138  MEOH      2337            0.0000000000
     39468      3029  MEOH      DC1            11.8432505925       19.0471080200       35.7315709414  MEOH      2337            0.0000000000
     39469      3029  MEOH      O1             10.9592402007       20.0634072908       36.1720078569  MEOH      2337            0.0000000000
     39470      3029  MEOH      DO1            10.9591062239       20.0689900918       36.1709540771  MEOH      2337            0.0000000000
     39471      3029  MEOH      HO1            10.2445708512       20.1264802013       35.5191912449  MEOH      2337            0.0000000000
     39472      3029  MEOH      HO2            10.7652203879       19.8776425851       37.1040742639  MEOH      2337            0.0000000000
     39473      3029  MEOH      H1A            12.8105659035       19.1047797645       36.2739753227  MEOH      2337            0.0000000000
     39474      3029  MEOH      H1B            12.0662815401       19.1738039031       34.6535935139  MEOH      2337            0.0000000000
     39475      3029  MEOH      H1C            11.3773289332       18.0381276946       35.8729318951  MEOH      2337            0.0000000000
     39476      3029  MEOH      LP1A           10.7142908297       19.9285693045       36.3825275071  MEOH      2337            0.0000000000
     39477      3029  MEOH      LP1B           11.0622572358       20.3726459605       36.0444973256  MEOH      2337            0.0000000000
     39478      3030  MEOH      C1            -18.4453415723      -18.2823831978       -0.3328475322  MEOH      2338            0.0000000000
     39479      3030  MEOH      DC1           -18.4475645702      -18.2877281795       -0.3376359563  MEOH      2338            0.0000000000
     39480      3030  MEOH      O1            -18.8703516906      -19.2396258295        0.6403529959  MEOH      2338            0.0000000000
     39481      3030  MEOH      DO1           -18.8652738602      -19.2467553630        0.6309424319  MEOH      2338            0.0000000000
     39482      3030  MEOH      HO1           -18.0927788311      -19.5235739158        1.1459753191  MEOH      2338            0.0000000000
     39483      3030  MEOH      HO2           -19.6025856541      -18.8115450601        1.1109699076  MEOH      2338            0.0000000000
     39484      3030  MEOH      H1A           -19.3337186675      -17.9207416705       -0.8934922882  MEOH      2338            0.0000000000
     39485      3030  MEOH      H1B           -17.7463483038      -18.7365322664       -1.0673392172  MEOH      2338            0.0000000000
     39486      3030  MEOH      H1C           -17.9456445254      -17.4211325597        0.1599721104  MEOH      2338            0.0000000000
     39487      3030  MEOH      LP1A          -18.9631802821      -19.0767285303        0.9358988003  MEOH      2338            0.0000000000
     39488      3030  MEOH      LP1B          -18.8595043796      -19.5618107281        0.5040473577  MEOH      2338            0.0000000000
     39489      3031  MEOH      C1            -34.0851851011       22.8179972278      -14.5966582167  MEOH      2339            0.0000000000
     39490      3031  MEOH      DC1           -34.0901431781       22.8209239387      -14.5913181498  MEOH      2339            0.0000000000
     39491      3031  MEOH      O1            -33.0089703122       22.2629409627      -15.3556394565  MEOH      2339            0.0000000000
     39492      3031  MEOH      DO1           -33.0170055305       22.2770859357      -15.3593314810  MEOH      2339            0.0000000000
     39493      3031  MEOH      HO1           -32.2068254062       22.2652240408      -14.8102420425  MEOH      2339            0.0000000000
     39494      3031  MEOH      HO2           -33.3354474795       21.4219130527      -15.7119886025  MEOH      2339            0.0000000000
     39495      3031  MEOH      H1A           -34.9981381864       22.8309014616      -15.2296441134  MEOH      2339            0.0000000000
     39496      3031  MEOH      H1B           -33.8528743818       23.8596849585      -14.2880494007  MEOH      2339            0.0000000000
     39497      3031  MEOH      H1C           -34.2760813348       22.1954840708      -13.6964599058  MEOH      2339            0.0000000000
     39498      3031  MEOH      LP1A          -32.9978140938       21.9159222015      -15.3114408346  MEOH      2339            0.0000000000
     39499      3031  MEOH      LP1B          -32.8469118670       22.5154220394      -15.5358902990  MEOH      2339            0.0000000000
     39500      3032  MEOH      C1            -23.2012377074       15.9081748568      -21.1619001562  MEOH      2340            0.0000000000
     39501      3032  MEOH      DC1           -23.1866733408       15.9286581770      -21.1501496630  MEOH      2340            0.0000000000
     39502      3032  MEOH      O1            -22.8269147652       14.9817036720      -20.1429857664  MEOH      2340            0.0000000000
     39503      3032  MEOH      DO1           -22.8112663716       14.9903930968      -20.1331022761  MEOH      2340            0.0000000000
     39504      3032  MEOH      HO1           -23.2183126409       14.1404103081      -20.4257103295  MEOH      2340            0.0000000000
     39505      3032  MEOH      HO2           -21.8685700134       15.0820251057      -20.0315813345  MEOH      2340            0.0000000000
     39506      3032  MEOH      H1A           -22.9168979615       16.9432314947      -20.8753174183  MEOH      2340            0.0000000000
     39507      3032  MEOH      H1B           -24.2970980197       15.8427260733      -21.3325683505  MEOH      2340            0.0000000000
     39508      3032  MEOH      H1C           -22.6882882165       15.6417902648      -22.1107115549  MEOH      2340            0.0000000000
     39509      3032  MEOH      LP1A          -22.5182296142       14.8363115627      -20.2209255643  MEOH      2340            0.0000000000
     39510      3032  MEOH      LP1B          -23.0672455831       14.9800337602      -19.8885485259  MEOH      2340            0.0000000000
     39511      3033  MEOH      C1             -6.4210365648       18.0255827463       -5.8433475965  MEOH      2341            0.0000000000
     39512      3033  MEOH      DC1            -6.4201221375       18.0178283892       -5.8299519661  MEOH      2341            0.0000000000
     39513      3033  MEOH      O1             -5.4217098296       17.8832417382       -6.8604578698  MEOH      2341            0.0000000000
     39514      3033  MEOH      DO1            -5.4228930724       17.8830676091       -6.8548011865  MEOH      2341            0.0000000000
     39515      3033  MEOH      HO1            -4.5500002709       17.8507119113       -6.4362359272  MEOH      2341            0.0000000000
     39516      3033  MEOH      HO2            -5.7184538180       17.1561309908       -7.4298022000  MEOH      2341            0.0000000000
     39517      3033  MEOH      H1A            -7.4081919048       18.1895392319       -6.3260106325  MEOH      2341            0.0000000000
     39518      3033  MEOH      H1B            -6.1905418445       18.9077368895       -5.2085269514  MEOH      2341            0.0000000000
     39519      3033  MEOH      H1C            -6.4783582166       17.1144833028       -5.2101548660  MEOH      2341            0.0000000000
     39520      3033  MEOH      LP1A           -5.3656598481       17.5441464034       -6.9265846685  MEOH      2341            0.0000000000
     39521      3033  MEOH      LP1B           -5.3189851538       18.1985771823       -6.9723113395  MEOH      2341            0.0000000000
     39522      3034  MEOH      C1             20.3929845248      -27.2876862247       19.0595425074  MEOH      2342            0.0000000000
     39523      3034  MEOH      DC1            20.3879505653      -27.2636459428       19.0641472910  MEOH      2342            0.0000000000
     39524      3034  MEOH      O1             21.3122085801      -28.3644048646       18.9182013151  MEOH      2342            0.0000000000
     39525      3034  MEOH      DO1            21.3125875538      -28.3488161153       18.9230030007  MEOH      2342            0.0000000000
     39526      3034  MEOH      HO1            21.7341641563      -28.5084873836       19.7796499320  MEOH      2342            0.0000000000
     39527      3034  MEOH      HO2            20.7925193338      -29.0865559858       18.5317807589  MEOH      2342            0.0000000000
     39528      3034  MEOH      H1A            19.8836919896      -27.1169618936       18.0870224211  MEOH      2342            0.0000000000
     39529      3034  MEOH      H1B            20.9190383161      -26.3581734821       19.3654746411  MEOH      2342            0.0000000000
     39530      3034  MEOH      H1C            19.6263900273      -27.5584923361       19.8167201130  MEOH      2342            0.0000000000
     39531      3034  MEOH      LP1A           21.1509336485      -28.6685547226       18.9813143910  MEOH      2342            0.0000000000
     39532      3034  MEOH      LP1B           21.6252976268      -28.2424320048       18.8202325940  MEOH      2342            0.0000000000
     39533      3035  MEOH      C1             -9.5751195450       -9.3772579437      -15.5655051736  MEOH      2343            0.0000000000
     39534      3035  MEOH      DC1            -9.5607563917       -9.4036264673      -15.5651487502  MEOH      2343            0.0000000000
     39535      3035  MEOH      O1            -10.5449159106       -8.3815083227      -15.8653987473  MEOH      2343            0.0000000000
     39536      3035  MEOH      DO1           -10.5312899873       -8.4085371981      -15.8629722963  MEOH      2343            0.0000000000
     39537      3035  MEOH      HO1           -11.1465718423       -8.2634844206      -15.1137469001  MEOH      2343            0.0000000000
     39538      3035  MEOH      HO2           -10.0387086993       -7.6123545711      -16.1704508177  MEOH      2343            0.0000000000
     39539      3035  MEOH      H1A            -8.9128951264       -9.4943353229      -16.4498539222  MEOH      2343            0.0000000000
     39540      3035  MEOH      H1B           -10.0757352083      -10.3430862969      -15.3399379989  MEOH      2343            0.0000000000
     39541      3035  MEOH      H1C            -8.9646202154       -9.0437656300      -14.6992520666  MEOH      2343            0.0000000000
     39542      3035  MEOH      LP1A          -10.4251133252       -8.0659757398      -15.7727352179  MEOH      2343            0.0000000000
     39543      3035  MEOH      LP1B          -10.8232929391       -8.5279220325      -16.0189215650  MEOH      2343            0.0000000000
     39544      3036  MEOH      C1              4.3942161571       22.6289349024       21.0653362703  MEOH      2344            0.0000000000
     39545      3036  MEOH      DC1             4.3892971535       22.6324206492       21.0837836795  MEOH      2344            0.0000000000
     39546      3036  MEOH      O1              4.7785048971       22.0852003042       22.3307611360  MEOH      2344            0.0000000000
     39547      3036  MEOH      DO1             4.7752241017       22.0879526900       22.3475459419  MEOH      2344            0.0000000000
     39548      3036  MEOH      HO1             5.5317131886       22.6115994254       22.6413754223  MEOH      2344            0.0000000000
     39549      3036  MEOH      HO2             3.9659069552       22.0003319831       22.8536205371  MEOH      2344            0.0000000000
     39550      3036  MEOH      H1A             3.6407651775       21.9644839290       20.5908496783  MEOH      2344            0.0000000000
     39551      3036  MEOH      H1B             5.2738207916       22.6916816452       20.3895555860  MEOH      2344            0.0000000000
     39552      3036  MEOH      H1C             3.9535211382       23.6419839523       21.1829820307  MEOH      2344            0.0000000000
     39553      3036  MEOH      LP1A            4.5999031941       22.2420528485       22.5876632788  MEOH      2344            0.0000000000
     39554      3036  MEOH      LP1B            5.0130673705       21.8295058591       22.2849266860  MEOH      2344            0.0000000000
     39555      3037  MEOH      C1             -8.8468229424      -18.3577941550        0.7927476326  MEOH      2345            0.0000000000
     39556      3037  MEOH      DC1            -8.8552198623      -18.3643527476        0.7910471495  MEOH      2345            0.0000000000
     39557      3037  MEOH      O1             -9.3189866683      -17.2362458155        0.0405528769  MEOH      2345            0.0000000000
     39558      3037  MEOH      DO1            -9.3244878660      -17.2424928164        0.0384152658  MEOH      2345            0.0000000000
     39559      3037  MEOH      HO1           -10.1779834270      -16.9715260532        0.4051732513  MEOH      2345            0.0000000000
     39560      3037  MEOH      HO2            -8.5909521249      -16.5953515642        0.0515192957  MEOH      2345            0.0000000000
     39561      3037  MEOH      H1A            -7.8672640246      -18.6871830849        0.3849630555  MEOH      2345            0.0000000000
     39562      3037  MEOH      H1B            -9.5594428135      -19.2070977529        0.7207940478  MEOH      2345            0.0000000000
     39563      3037  MEOH      H1C            -8.7212782281      -18.0771195517        1.8603530333  MEOH      2345            0.0000000000
     39564      3037  MEOH      LP1A           -9.2022793691      -16.9387231377        0.1832401660  MEOH      2345            0.0000000000
     39565      3037  MEOH      LP1B           -9.5052531997      -17.3464483604       -0.2345110764  MEOH      2345            0.0000000000
     39566      3038  MEOH      C1             29.2338730456       10.8430948926       -9.6941084183  MEOH      2346            0.0000000000
     39567      3038  MEOH      DC1            29.2377941828       10.8367274871       -9.6885689880  MEOH      2346            0.0000000000
     39568      3038  MEOH      O1             28.9331890251        9.9645802974       -8.6103602197  MEOH      2346            0.0000000000
     39569      3038  MEOH      DO1            28.9330448457        9.9615768645       -8.6058349016  MEOH      2346            0.0000000000
     39570      3038  MEOH      HO1            27.9753673966        9.8117501621       -8.6213455593  MEOH      2346            0.0000000000
     39571      3038  MEOH      HO2            29.5585421489        9.2257732087       -8.6735864535  MEOH      2346            0.0000000000
     39572      3038  MEOH      H1A            30.3074632357       11.1254960732       -9.6496710722  MEOH      2346            0.0000000000
     39573      3038  MEOH      H1B            28.6186538179       11.7653218071       -9.6211438921  MEOH      2346            0.0000000000
     39574      3038  MEOH      H1C            29.0331118070       10.3391835652      -10.6636904413  MEOH      2346            0.0000000000
     39575      3038  MEOH      LP1A           28.9571241178        9.6317311379       -8.7158995409  MEOH      2346            0.0000000000
     39576      3038  MEOH      LP1B           28.8699300998       10.1497513562       -8.3201706483  MEOH      2346            0.0000000000
     39577      3039  MEOH      C1            -32.6870127903       14.4134434403       16.8216783451  MEOH      2347            0.0000000000
     39578      3039  MEOH      DC1           -32.6966669535       14.4183846173       16.8389016698  MEOH      2347            0.0000000000
     39579      3039  MEOH      O1            -33.9243919688       15.1151705959       16.9596119566  MEOH      2347            0.0000000000
     39580      3039  MEOH      DO1           -33.9362005340       15.1213738865       16.9677684587  MEOH      2347            0.0000000000
     39581      3039  MEOH      HO1           -34.0599970269       15.5579444927       16.1072842345  MEOH      2347            0.0000000000
     39582      3039  MEOH      HO2           -34.5604301097       14.4557507136       17.2782354055  MEOH      2347            0.0000000000
     39583      3039  MEOH      H1A           -32.4050924227       13.9199360269       17.7762946761  MEOH      2347            0.0000000000
     39584      3039  MEOH      H1B           -31.8816882996       15.1234742064       16.5359690909  MEOH      2347            0.0000000000
     39585      3039  MEOH      H1C           -32.7781807590       13.6432259521       16.0262071496  MEOH      2347            0.0000000000
     39586      3039  MEOH      LP1A          -34.1904897261       14.9082895993       16.8653132991  MEOH      2347            0.0000000000
     39587      3039  MEOH      LP1B          -33.8665962124       15.4356964952       17.0877634234  MEOH      2347            0.0000000000
     39588      3040  MEOH      C1             30.7492762626       12.4345222293       -7.0854226417  MEOH      2348            0.0000000000
     39589      3040  MEOH      DC1            30.7492509814       12.4440508737       -7.0858961587  MEOH      2348            0.0000000000
     39590      3040  MEOH      O1             31.9830198215       13.0618088824       -6.7384373148  MEOH      2348            0.0000000000
     39591      3040  MEOH      DO1            31.9857002135       13.0711204050       -6.7423849903  MEOH      2348            0.0000000000
     39592      3040  MEOH      HO1            32.6232757948       12.8544811138       -7.4369983261  MEOH      2348            0.0000000000
     39593      3040  MEOH      HO2            31.7662370760       13.9755710825       -6.4956537015  MEOH      2348            0.0000000000
     39594      3040  MEOH      H1A            30.0328724512       12.5096581996       -6.2395850881  MEOH      2348            0.0000000000
     39595      3040  MEOH      H1B            30.9197968512       11.3587205926       -7.3042709179  MEOH      2348            0.0000000000
     39596      3040  MEOH      H1C            30.3156356740       12.9291011561       -7.9807820808  MEOH      2348            0.0000000000
     39597      3040  MEOH      LP1A           31.9928500453       13.3866471096       -6.8683738101  MEOH      2348            0.0000000000
     39598      3040  MEOH      LP1B           32.1753889751       12.8463916874       -6.5407265643  MEOH      2348            0.0000000000
     39599      3041  MEOH      C1             12.6954672394       27.8226952271       29.4121923693  MEOH      2349            0.0000000000
     39600      3041  MEOH      DC1            12.6855146993       27.8230027067       29.4167000086  MEOH      2349            0.0000000000
     39601      3041  MEOH      O1             11.6474666917       28.7850619658       29.2713163593  MEOH      2349            0.0000000000
     39602      3041  MEOH      DO1            11.6437425083       28.7867668279       29.2750235893  MEOH      2349            0.0000000000
     39603      3041  MEOH      HO1            10.8038219063       28.3332692391       29.4295781951  MEOH      2349            0.0000000000
     39604      3041  MEOH      HO2            11.9060630605       29.5510851676       29.8072607337  MEOH      2349            0.0000000000
     39605      3041  MEOH      H1A            13.6633313326       28.2826824624       29.1189828180  MEOH      2349            0.0000000000
     39606      3041  MEOH      H1B            12.5096804986       26.9473094491       28.7537821426  MEOH      2349            0.0000000000
     39607      3041  MEOH      H1C            12.7667665202       27.4878873611       30.4691413305  MEOH      2349            0.0000000000
     39608      3041  MEOH      LP1A           11.5857052147       28.9406486584       29.5786895869  MEOH      2349            0.0000000000
     39609      3041  MEOH      LP1B           11.5415147445       28.7987414917       28.9380191114  MEOH      2349            0.0000000000
     39610      3042  MEOH      C1             -7.6601215348      -30.7281586702       11.8355833686  MEOH      2350            0.0000000000
     39611      3042  MEOH      DC1            -7.6875300402      -30.7202191608       11.8321744419  MEOH      2350            0.0000000000
     39612      3042  MEOH      O1             -6.5537891915      -31.2706622970       12.5475843824  MEOH      2350            0.0000000000
     39613      3042  MEOH      DO1            -6.5765958668      -31.2642457860       12.5418567747  MEOH      2350            0.0000000000
     39614      3042  MEOH      HO1            -5.7481843997      -30.7824320457       12.3162142397  MEOH      2350            0.0000000000
     39615      3042  MEOH      HO2            -6.8422156931      -31.3529313752       13.4700495319  MEOH      2350            0.0000000000
     39616      3042  MEOH      H1A            -8.5293454052      -31.4078161994       11.9653389347  MEOH      2350            0.0000000000
     39617      3042  MEOH      H1B            -7.4223431416      -30.6522458876       10.7529847887  MEOH      2350            0.0000000000
     39618      3042  MEOH      H1C            -7.9127687738      -29.7240734307       12.2384520898  MEOH      2350            0.0000000000
     39619      3042  MEOH      LP1A           -6.5203447958      -31.1104442833       12.8569573944  MEOH      2350            0.0000000000
     39620      3042  MEOH      LP1B           -6.4080610207      -31.5298319559       12.3629377249  MEOH      2350            0.0000000000
     39621      3043  MEOH      C1             15.7159606652       29.2822870871       35.7115325121  MEOH      2351            0.0000000000
     39622      3043  MEOH      DC1            15.7102306380       29.2942114126       35.7183992274  MEOH      2351            0.0000000000
     39623      3043  MEOH      O1             14.9054309944       30.4555795181       35.7861641300  MEOH      2351            0.0000000000
     39624      3043  MEOH      DO1            14.9022524335       30.4632751124       35.8031537527  MEOH      2351            0.0000000000
     39625      3043  MEOH      HO1            14.2603786794       30.3241976259       36.4985869749  MEOH      2351            0.0000000000
     39626      3043  MEOH      HO2            15.5179322093       31.2077014546       35.7787577697  MEOH      2351            0.0000000000
     39627      3043  MEOH      H1A            16.3006052443       29.2705529640       34.7668770044  MEOH      2351            0.0000000000
     39628      3043  MEOH      H1B            15.0762056835       28.3742606581       35.7343922659  MEOH      2351            0.0000000000
     39629      3043  MEOH      H1C            16.4207522928       29.2522990192       36.5698392623  MEOH      2351            0.0000000000
     39630      3043  MEOH      LP1A           15.0512350059       30.6881859782       36.0032710736  MEOH      2351            0.0000000000
     39631      3043  MEOH      LP1B           14.6296661677       30.4243340407       35.5729096330  MEOH      2351            0.0000000000
     39632      3044  MEOH      C1            -18.2587408294      -21.7753818873       30.3611398393  MEOH      2352            0.0000000000
     39633      3044  MEOH      DC1           -18.2550958064      -21.7828510823       30.3479979662  MEOH      2352            0.0000000000
     39634      3044  MEOH      O1            -18.2646640976      -22.0291270645       28.9589221874  MEOH      2352            0.0000000000
     39635      3044  MEOH      DO1           -18.2593666858      -22.0376095908       28.9547058384  MEOH      2352            0.0000000000
     39636      3044  MEOH      HO1           -18.0426381333      -21.1904953693       28.5249851517  MEOH      2352            0.0000000000
     39637      3044  MEOH      HO2           -17.7135191940      -22.8170562996       28.8312240422  MEOH      2352            0.0000000000
     39638      3044  MEOH      H1A           -18.5769185053      -22.6839110889       30.9158097025  MEOH      2352            0.0000000000
     39639      3044  MEOH      H1B           -18.9499520342      -20.9433285007       30.6145865444  MEOH      2352            0.0000000000
     39640      3044  MEOH      H1C           -17.2356905831      -21.5051169450       30.6997340751  MEOH      2352            0.0000000000
     39641      3044  MEOH      LP1A          -17.9473158559      -22.1338408075       28.8548783240  MEOH      2352            0.0000000000
     39642      3044  MEOH      LP1B          -18.5857633296      -21.9780089999       28.8293759535  MEOH      2352            0.0000000000
     39643      3045  MEOH      C1             25.1421878356       13.3867048873       17.6163220572  MEOH      2353            0.0000000000
     39644      3045  MEOH      DC1            25.1499138397       13.3907806319       17.6127601285  MEOH      2353            0.0000000000
     39645      3045  MEOH      O1             24.5046916117       14.5716334467       18.1034134004  MEOH      2353            0.0000000000
     39646      3045  MEOH      DO1            24.5234216192       14.5819221983       18.1062422347  MEOH      2353            0.0000000000
     39647      3045  MEOH      HO1            24.4040927158       15.1676474660       17.3447651612  MEOH      2353            0.0000000000
     39648      3045  MEOH      HO2            23.6957589977       14.2586178692       18.5376360114  MEOH      2353            0.0000000000
     39649      3045  MEOH      H1A            25.1352860441       12.6027787034       18.4035533472  MEOH      2353            0.0000000000
     39650      3045  MEOH      H1B            26.1916345763       13.6058920507       17.3248781932  MEOH      2353            0.0000000000
     39651      3045  MEOH      H1C            24.5943303138       12.9979211287       16.7314376998  MEOH      2353            0.0000000000
     39652      3045  MEOH      LP1A           24.1569304230       14.5367055066       18.0849148953  MEOH      2353            0.0000000000
     39653      3045  MEOH      LP1B           24.7454959942       14.8003081514       18.2139626148  MEOH      2353            0.0000000000
     39654      3046  MEOH      C1             27.7690704768        3.8056276626       -0.7020323275  MEOH      2354            0.0000000000
     39655      3046  MEOH      DC1            27.7375478461        3.7940746886       -0.7057913619  MEOH      2354            0.0000000000
     39656      3046  MEOH      O1             28.9706068937        4.3224510068       -1.2657329193  MEOH      2354            0.0000000000
     39657      3046  MEOH      DO1            28.9562219329        4.3030103338       -1.2467236490  MEOH      2354            0.0000000000
     39658      3046  MEOH      HO1            29.3390958222        5.0080671025       -0.6869009239  MEOH      2354            0.0000000000
     39659      3046  MEOH      HO2            29.5012002859        3.5624886897       -1.5517887350  MEOH      2354            0.0000000000
     39660      3046  MEOH      H1A            27.2431591168        3.2031126207       -1.4732092633  MEOH      2354            0.0000000000
     39661      3046  MEOH      H1B            27.1239444680        4.6431404750       -0.3604101359  MEOH      2354            0.0000000000
     39662      3046  MEOH      H1C            28.0169415238        3.1518604312        0.1613733437  MEOH      2354            0.0000000000
     39663      3046  MEOH      LP1A           29.2446185523        4.1336550417       -1.1572262625  MEOH      2354            0.0000000000
     39664      3046  MEOH      LP1B           28.8974400037        4.5910018162       -1.4779287462  MEOH      2354            0.0000000000
     39665      3047  MEOH      C1             -7.7639169876       21.2458469646      -16.4702458295  MEOH      2355            0.0000000000
     39666      3047  MEOH      DC1            -7.7639328163       21.2354433160      -16.4783867907  MEOH      2355            0.0000000000
     39667      3047  MEOH      O1             -7.5543286037       22.6390077251      -16.2549006226  MEOH      2355            0.0000000000
     39668      3047  MEOH      DO1            -7.5525493779       22.6295469816      -16.2689142399  MEOH      2355            0.0000000000
     39669      3047  MEOH      HO1            -7.5577107177       22.7971647658      -15.2978870843  MEOH      2355            0.0000000000
     39670      3047  MEOH      HO2            -6.7786637476       22.8742512896      -16.7877275141  MEOH      2355            0.0000000000
     39671      3047  MEOH      H1A            -7.8960769761       21.0562899367      -17.5569485816  MEOH      2355            0.0000000000
     39672      3047  MEOH      H1B            -8.6738239587       20.9062329769      -15.9307528794  MEOH      2355            0.0000000000
     39673      3047  MEOH      H1C            -6.8846629834       20.6746494332      -16.1028675803  MEOH      2355            0.0000000000
     39674      3047  MEOH      LP1A           -7.2116004450       22.7065251848      -16.2330190796  MEOH      2355            0.0000000000
     39675      3047  MEOH      LP1B           -7.8612602974       22.8071868911      -16.2519504536  MEOH      2355            0.0000000000
     39676      3048  MEOH      C1            -16.8031918333      -12.7890100132      -22.7790982759  MEOH      2356            0.0000000000
     39677      3048  MEOH      DC1           -16.7975672127      -12.8103544595      -22.7932512758  MEOH      2356            0.0000000000
     39678      3048  MEOH      O1            -17.2508757835      -13.7856058259      -23.7041356022  MEOH      2356            0.0000000000
     39679      3048  MEOH      DO1           -17.2371499389      -13.8101840302      -23.7175934445  MEOH      2356            0.0000000000
     39680      3048  MEOH      HO1           -17.8425959888      -14.3548616824      -23.1876910567  MEOH      2356            0.0000000000
     39681      3048  MEOH      HO2           -17.6192598399      -13.2900853501      -24.4522349577  MEOH      2356            0.0000000000
     39682      3048  MEOH      H1A           -16.1583700283      -12.0445775774      -23.2932443544  MEOH      2356            0.0000000000
     39683      3048  MEOH      H1B           -16.2364332630      -13.2600140243      -21.9476772364  MEOH      2356            0.0000000000
     39684      3048  MEOH      H1C           -17.6769654219      -12.2494645774      -22.3551508278  MEOH      2356            0.0000000000
     39685      3048  MEOH      LP1A          -17.5402040654      -13.6758172477      -23.8676458875  MEOH      2356            0.0000000000
     39686      3048  MEOH      LP1B          -17.0301239291      -14.0572091084      -23.7036105164  MEOH      2356            0.0000000000
     39687      3049  MEOH      C1             21.5879276176        9.2599709221        2.5235429631  MEOH      2357            0.0000000000
     39688      3049  MEOH      DC1            21.5764923338        9.2503644747        2.5265647750  MEOH      2357            0.0000000000
     39689      3049  MEOH      O1             22.4781220280       10.2747074510        2.9854238799  MEOH      2357            0.0000000000
     39690      3049  MEOH      DO1            22.4694164123       10.2583660748        2.9909646814  MEOH      2357            0.0000000000
     39691      3049  MEOH      HO1            22.9044975488       10.6876022806        2.2182069778  MEOH      2357            0.0000000000
     39692      3049  MEOH      HO2            21.9649736921       10.8242528970        3.5982685495  MEOH      2357            0.0000000000
     39693      3049  MEOH      H1A            21.1457943642        8.7139473306        3.3841807640  MEOH      2357            0.0000000000
     39694      3049  MEOH      H1B            22.1473926477        8.5532593513        1.8740211114  MEOH      2357            0.0000000000
     39695      3049  MEOH      H1C            20.7558747785        9.7154178880        1.9451165318  MEOH      2357            0.0000000000
     39696      3049  MEOH      LP1A           22.3081887869       10.5794162032        3.0132675489  MEOH      2357            0.0000000000
     39697      3049  MEOH      LP1B           22.7945380239       10.1378889076        3.0459350666  MEOH      2357            0.0000000000
     39698      3050  MEOH      C1              7.0122778498      -32.7905081313      -25.4699283479  MEOH      2358            0.0000000000
     39699      3050  MEOH      DC1             7.0132472759      -32.7944083876      -25.4625945774  MEOH      2358            0.0000000000
     39700      3050  MEOH      O1              7.1991930562      -34.0616614556      -24.8426905850  MEOH      2358            0.0000000000
     39701      3050  MEOH      DO1             7.2051763421      -34.0611785872      -24.8347981411  MEOH      2358            0.0000000000
     39702      3050  MEOH      HO1             6.6534106392      -34.0717273102      -24.0408675168  MEOH      2358            0.0000000000
     39703      3050  MEOH      HO2             7.0406283138      -34.7215482098      -25.5357322101  MEOH      2358            0.0000000000
     39704      3050  MEOH      H1A             7.6366112378      -32.7314998043      -26.3870144073  MEOH      2358            0.0000000000
     39705      3050  MEOH      H1B             7.3094778565      -31.9739722173      -24.7776406490  MEOH      2358            0.0000000000
     39706      3050  MEOH      H1C             5.9464900041      -32.6620631477      -25.7561435715  MEOH      2358            0.0000000000
     39707      3050  MEOH      LP1A            6.9668260743      -34.2918983140      -24.9671758240  MEOH      2358            0.0000000000
     39708      3050  MEOH      LP1B            7.4700957430      -34.0473459976      -24.6215417618  MEOH      2358            0.0000000000
     39709      3051  MEOH      C1            -35.2883451512       -0.5533637758      -30.4732241376  MEOH      2359            0.0000000000
     39710      3051  MEOH      DC1           -35.2980637963       -0.5579734024      -30.4786574429  MEOH      2359            0.0000000000
     39711      3051  MEOH      O1            -34.2912622283       -1.4897768435      -30.0594309636  MEOH      2359            0.0000000000
     39712      3051  MEOH      DO1           -34.3034159078       -1.4968706541      -30.0657270454  MEOH      2359            0.0000000000
     39713      3051  MEOH      HO1           -33.6158936494       -1.5297572048      -30.7545416406  MEOH      2359            0.0000000000
     39714      3051  MEOH      HO2           -34.0201042343       -1.1945419461      -29.1761361666  MEOH      2359            0.0000000000
     39715      3051  MEOH      H1A           -36.0543131706       -0.4494983626      -29.6752103713  MEOH      2359            0.0000000000
     39716      3051  MEOH      H1B           -35.7785261098       -0.9012146476      -31.4075920520  MEOH      2359            0.0000000000
     39717      3051  MEOH      H1C           -34.8246084891        0.4406300764      -30.6499881890  MEOH      2359            0.0000000000
     39718      3051  MEOH      LP1A          -34.0443793937       -1.3268942339      -29.8722996688  MEOH      2359            0.0000000000
     39719      3051  MEOH      LP1B          -34.3769292766       -1.8114517719      -30.1675346051  MEOH      2359            0.0000000000
     39720      3052  MEOH      C1              4.8525063366       18.8373784673       30.1780993864  MEOH      2360            0.0000000000
     39721      3052  MEOH      DC1             4.8471771014       18.8562757320       30.1928878152  MEOH      2360            0.0000000000
     39722      3052  MEOH      O1              3.5740544385       18.5177707358       30.7313727163  MEOH      2360            0.0000000000
     39723      3052  MEOH      DO1             3.5752186046       18.5463216272       30.7593290247  MEOH      2360            0.0000000000
     39724      3052  MEOH      HO1             2.9619564175       18.4837486791       29.9796556732  MEOH      2360            0.0000000000
     39725      3052  MEOH      HO2             3.7178372463       17.6820943755       31.2024051196  MEOH      2360            0.0000000000
     39726      3052  MEOH      H1A             5.6451853784       18.6930816023       30.9430564777  MEOH      2360            0.0000000000
     39727      3052  MEOH      H1B             4.8656634984       19.8921770801       29.8294623583  MEOH      2360            0.0000000000
     39728      3052  MEOH      H1C             5.0694710180       18.1645055332       29.3210758498  MEOH      2360            0.0000000000
     39729      3052  MEOH      LP1A            3.5331539336       18.1704543513       30.7454609313  MEOH      2360            0.0000000000
     39730      3052  MEOH      LP1B            3.4054207757       18.8112407666       30.8204683321  MEOH      2360            0.0000000000
     39731      3053  MEOH      C1             -8.1892389173        6.2629644307       26.4107791253  MEOH      2361            0.0000000000
     39732      3053  MEOH      DC1            -8.1838858999        6.2681763055       26.3976278137  MEOH      2361            0.0000000000
     39733      3053  MEOH      O1             -6.8447422877        6.0878360036       26.8780124291  MEOH      2361            0.0000000000
     39734      3053  MEOH      DO1            -6.8415140160        6.0969097947       26.8682652721  MEOH      2361            0.0000000000
     39735      3053  MEOH      HO1            -6.8399399564        5.3392842179       27.4948974765  MEOH      2361            0.0000000000
     39736      3053  MEOH      HO2            -6.2755018254        6.0866707551       26.0926055670  MEOH      2361            0.0000000000
     39737      3053  MEOH      H1A            -8.2768256550        7.2296745008       25.8702967429  MEOH      2361            0.0000000000
     39738      3053  MEOH      H1B            -8.9080327360        6.2421203390       27.2576687111  MEOH      2361            0.0000000000
     39739      3053  MEOH      H1C            -8.4958690341        5.4308496771       25.7415377576  MEOH      2361            0.0000000000
     39740      3053  MEOH      LP1A           -6.6707941383        5.8722531990       26.6640823104  MEOH      2361            0.0000000000
     39741      3053  MEOH      LP1B           -6.7908347744        6.2830372277       27.1634777722  MEOH      2361            0.0000000000
     39742      3054  MEOH      C1             12.7166177583      -35.8841827507      -19.9423192031  MEOH      2362            0.0000000000
     39743      3054  MEOH      DC1            12.7153399446      -35.8811707821      -19.9351456792  MEOH      2362            0.0000000000
     39744      3054  MEOH      O1             11.5638516199      -36.6592524923      -19.6194272012  MEOH      2362            0.0000000000
     39745      3054  MEOH      DO1            11.5617525831      -36.6547492318      -19.6166247993  MEOH      2362            0.0000000000
     39746      3054  MEOH      HO1            10.7805388848      -36.0922690382      -19.6959185186  MEOH      2362            0.0000000000
     39747      3054  MEOH      HO2            11.6258268087      -37.4744765188      -20.1414127031  MEOH      2362            0.0000000000
     39748      3054  MEOH      H1A            13.6242645125      -36.5153441398      -19.8321662615  MEOH      2362            0.0000000000
     39749      3054  MEOH      H1B            12.7983135562      -35.0151309597      -19.2550086600  MEOH      2362            0.0000000000
     39750      3054  MEOH      H1C            12.6587791782      -35.5285290441      -20.9932645586  MEOH      2362            0.0000000000
     39751      3054  MEOH      LP1A           11.4393975592      -36.8143924061      -19.9074251073  MEOH      2362            0.0000000000
     39752      3054  MEOH      LP1B           11.5014552015      -36.6433909132      -19.2753994446  MEOH      2362            0.0000000000
     39753      3055  MEOH      C1            -24.1283019376       -8.7419529385      -10.1825703713  MEOH      2363            0.0000000000
     39754      3055  MEOH      DC1           -24.1325436276       -8.7346431987      -10.1756358282  MEOH      2363            0.0000000000
     39755      3055  MEOH      O1            -24.0646123241       -8.9347602795       -8.7653247198  MEOH      2363            0.0000000000
     39756      3055  MEOH      DO1           -24.0635316368       -8.9319987380       -8.7582152593  MEOH      2363            0.0000000000
     39757      3055  MEOH      HO1           -24.5630764653       -8.2167468762       -8.3447414906  MEOH      2363            0.0000000000
     39758      3055  MEOH      HO2           -24.3376540475       -9.8531276824       -8.6138336934  MEOH      2363            0.0000000000
     39759      3055  MEOH      H1A           -23.5728340842       -9.5539305818      -10.6987765033  MEOH      2363            0.0000000000
     39760      3055  MEOH      H1B           -23.6808280135       -7.7621781090      -10.4548374684  MEOH      2363            0.0000000000
     39761      3055  MEOH      H1C           -25.1842084802       -8.7734587125      -10.5266485020  MEOH      2363            0.0000000000
     39762      3055  MEOH      LP1A          -24.3294319655       -9.1380031624       -8.6601444552  MEOH      2363            0.0000000000
     39763      3055  MEOH      LP1B          -23.7827799292       -8.7731848716       -8.6350792256  MEOH      2363            0.0000000000
     39764      3056  MEOH      C1             14.2601222356      -19.2332206783       12.6947185261  MEOH      2364            0.0000000000
     39765      3056  MEOH      DC1            14.2609653938      -19.2271188357       12.6946964304  MEOH      2364            0.0000000000
     39766      3056  MEOH      O1             14.5561797048      -17.8586187032       12.5352183961  MEOH      2364            0.0000000000
     39767      3056  MEOH      DO1            14.5601463888      -17.8528205392       12.5380470093  MEOH      2364            0.0000000000
     39768      3056  MEOH      HO1            13.7207316748      -17.3684637748       12.5869362399  MEOH      2364            0.0000000000
     39769      3056  MEOH      HO2            15.2822310668      -17.6738663329       13.1513482386  MEOH      2364            0.0000000000
     39770      3056  MEOH      H1A            15.1885562094      -19.8170087765       12.5171718739  MEOH      2364            0.0000000000
     39771      3056  MEOH      H1B            13.4915241333      -19.5530216242       11.9589839870  MEOH      2364            0.0000000000
     39772      3056  MEOH      H1C            13.8888972677      -19.4155668563       13.7258649255  MEOH      2364            0.0000000000
     39773      3056  MEOH      LP1A           14.6243420415      -17.7139381570       12.8465404728  MEOH      2364            0.0000000000
     39774      3056  MEOH      LP1B           14.5492536411      -17.7732672228       12.1958555307  MEOH      2364            0.0000000000
     39775      3057  MEOH      C1             29.3971480773        0.4911845635      -35.6545297664  MEOH      2365            0.0000000000
     39776      3057  MEOH      DC1            29.4008519152        0.4964261396      -35.6471780286  MEOH      2365            0.0000000000
     39777      3057  MEOH      O1             28.2296019067        1.1335054369      -35.1357432432  MEOH      2365            0.0000000000
     39778      3057  MEOH      DO1            28.2328939688        1.1421248133      -35.1238866092  MEOH      2365            0.0000000000
     39779      3057  MEOH      HO1            27.8844868645        1.6905393624      -35.8509416873  MEOH      2365            0.0000000000
     39780      3057  MEOH      HO2            27.6754252205        0.4175194099      -34.7876739833  MEOH      2365            0.0000000000
     39781      3057  MEOH      H1A            29.8130304158       -0.2083059707      -34.8981727918  MEOH      2365            0.0000000000
     39782      3057  MEOH      H1B            30.1727274006        1.2378167924      -35.9290075063  MEOH      2365            0.0000000000
     39783      3057  MEOH      H1C            29.1293850374       -0.0856893249      -36.5654855676  MEOH      2365            0.0000000000
     39784      3057  MEOH      LP1A           27.9477571325        0.9340980786      -35.1931908604  MEOH      2365            0.0000000000
     39785      3057  MEOH      LP1B           28.3174842939        1.4350926147      -34.9813999240  MEOH      2365            0.0000000000
     39786      3058  MEOH      C1             35.8900213209       19.2524542094       36.4876845202  MEOH      2366            0.0000000000
     39787      3058  MEOH      DC1            35.9115923362       19.2343036287       36.4681318360  MEOH      2366            0.0000000000
     39788      3058  MEOH      O1             36.2854931098       18.7152755490       35.2210037019  MEOH      2366            0.0000000000
     39789      3058  MEOH      DO1            36.3083730937       18.7144358990       35.1961683507  MEOH      2366            0.0000000000
     39790      3058  MEOH      HO1            36.4607046080       17.7739748621       35.3764191084  MEOH      2366            0.0000000000
     39791      3058  MEOH      HO2            35.6080430723       18.9980159484       34.5869537723  MEOH      2366            0.0000000000
     39792      3058  MEOH      H1A            35.6808581505       20.3401236217       36.4008109338  MEOH      2366            0.0000000000
     39793      3058  MEOH      H1B            36.6910846461       19.1105668397       37.2443129125  MEOH      2366            0.0000000000
     39794      3058  MEOH      H1C            34.9634373685       18.7481213213       36.8361260749  MEOH      2366            0.0000000000
     39795      3058  MEOH      LP1A           36.0039471757       18.6057904654       35.0442414225  MEOH      2366            0.0000000000
     39796      3058  MEOH      LP1B           36.6319188287       18.7452833002       35.1811444973  MEOH      2366            0.0000000000
     39797      3059  MEOH      C1             17.8126153145        7.4629851936      -33.6848774021  MEOH      2367            0.0000000000
     39798      3059  MEOH      DC1            17.8142286553        7.4539017908      -33.6756939518  MEOH      2367            0.0000000000
     39799      3059  MEOH      O1             16.6963346370        7.1842768128      -34.5295319708  MEOH      2367            0.0000000000
     39800      3059  MEOH      DO1            16.6949852074        7.1759499318      -34.5173132332  MEOH      2367            0.0000000000
     39801      3059  MEOH      HO1            15.9359229678        7.6688187082      -34.1719103202  MEOH      2367            0.0000000000
     39802      3059  MEOH      HO2            16.9976701269        7.4093550557      -35.4236442167  MEOH      2367            0.0000000000
     39803      3059  MEOH      H1A            18.7238129007        6.9770601717      -34.0946539669  MEOH      2367            0.0000000000
     39804      3059  MEOH      H1B            17.6350845319        7.0599938958      -32.6648765025  MEOH      2367            0.0000000000
     39805      3059  MEOH      H1C            17.9865678615        8.5594466271      -33.6420540619  MEOH      2367            0.0000000000
     39806      3059  MEOH      LP1A           16.6830477962        7.4166456025      -34.7909286147  MEOH      2367            0.0000000000
     39807      3059  MEOH      LP1B           16.5290076672        6.8984534162      -34.4163654070  MEOH      2367            0.0000000000
     39808      3060  MEOH      C1            -19.2019571346      -16.6280019081      -18.3616950675  MEOH      2368            0.0000000000
     39809      3060  MEOH      DC1           -19.1936476578      -16.6120350024      -18.3697722177  MEOH      2368            0.0000000000
     39810      3060  MEOH      O1            -17.9990560012      -16.3646253770      -17.6390036253  MEOH      2368            0.0000000000
     39811      3060  MEOH      DO1           -17.9892888449      -16.3629280241      -17.6416548121  MEOH      2368            0.0000000000
     39812      3060  MEOH      HO1           -17.8611967243      -15.4047092736      -17.6603553052  MEOH      2368            0.0000000000
     39813      3060  MEOH      HO2           -18.1183431882      -16.8085141870      -16.7848178774  MEOH      2368            0.0000000000
     39814      3060  MEOH      H1A           -19.4049663836      -17.7194295509      -18.3181755606  MEOH      2368            0.0000000000
     39815      3060  MEOH      H1B           -19.0942917941      -16.3381322553      -19.4287961684  MEOH      2368            0.0000000000
     39816      3060  MEOH      H1C           -20.0609324063      -16.0975743258      -17.8978749920  MEOH      2368            0.0000000000
     39817      3060  MEOH      LP1A          -18.0711552538      -16.3170578090      -17.2998295929  MEOH      2368            0.0000000000
     39818      3060  MEOH      LP1B          -17.7240163325      -16.3792605141      -17.8549642546  MEOH      2368            0.0000000000
     39819      3061  MEOH      C1             18.7031230439       22.7559208038        5.3344131650  MEOH      2369            0.0000000000
     39820      3061  MEOH      DC1            18.7095815419       22.7556884357        5.3412969556  MEOH      2369            0.0000000000
     39821      3061  MEOH      O1             19.4726359667       23.1635798747        6.4661508590  MEOH      2369            0.0000000000
     39822      3061  MEOH      DO1            19.4881809485       23.1632611983        6.4610525222  MEOH      2369            0.0000000000
     39823      3061  MEOH      HO1            19.6808849472       22.3785466683        6.9964858729  MEOH      2369            0.0000000000
     39824      3061  MEOH      HO2            20.1582180538       23.7708669433        6.1466518454  MEOH      2369            0.0000000000
     39825      3061  MEOH      H1A            18.2658213616       23.6534697432        4.8470794583  MEOH      2369            0.0000000000
     39826      3061  MEOH      H1B            17.8775111026       22.0834818833        5.6514491585  MEOH      2369            0.0000000000
     39827      3061  MEOH      H1C            19.3500398929       22.2275165099        4.6018775054  MEOH      2369            0.0000000000
     39828      3061  MEOH      LP1A           19.8134842643       23.1600296830        6.3867163946  MEOH      2369            0.0000000000
     39829      3061  MEOH      LP1B           19.2602775361       23.2463757096        6.7317609994  MEOH      2369            0.0000000000
     39830      3062  MEOH      C1            -19.8090970134       36.4095850601      -10.0605599597  MEOH      2370            0.0000000000
     39831      3062  MEOH      DC1           -19.8178849228       36.4199566825      -10.0525976591  MEOH      2370            0.0000000000
     39832      3062  MEOH      O1            -19.5572093672       36.6574029954      -11.4449907695  MEOH      2370            0.0000000000
     39833      3062  MEOH      DO1           -19.5743974457       36.6702013101      -11.4424611603  MEOH      2370            0.0000000000
     39834      3062  MEOH      HO1           -19.0735881038       35.8950310768      -11.7996730680  MEOH      2370            0.0000000000
     39835      3062  MEOH      HO2           -20.3730384659       37.0134465228      -11.8304202551  MEOH      2370            0.0000000000
     39836      3062  MEOH      H1A           -20.1257112865       37.3458702235       -9.5531681026  MEOH      2370            0.0000000000
     39837      3062  MEOH      H1B           -18.8734277513       36.0513785308       -9.5804223596  MEOH      2370            0.0000000000
     39838      3062  MEOH      H1C           -20.6028669290       35.6403061537       -9.9489343122  MEOH      2370            0.0000000000
     39839      3062  MEOH      LP1A          -19.8237235301       36.5386304437      -11.6382866099  MEOH      2370            0.0000000000
     39840      3062  MEOH      LP1B          -19.2538501426       36.8278168027      -11.4828367087  MEOH      2370            0.0000000000
     39841      3063  MEOH      C1             -0.1185326916       -0.8917989370      -34.0501022852  MEOH      2371            0.0000000000
     39842      3063  MEOH      DC1            -0.1258996269       -0.9039753339      -34.0337997479  MEOH      2371            0.0000000000
     39843      3063  MEOH      O1              0.3124381349        0.2156435813      -34.8420402915  MEOH      2371            0.0000000000
     39844      3063  MEOH      DO1             0.3178707888        0.2011878049      -34.8173726102  MEOH      2371            0.0000000000
     39845      3063  MEOH      HO1            -0.1453842038        1.0302502592      -34.5818198694  MEOH      2371            0.0000000000
     39846      3063  MEOH      HO2             1.2795370117        0.1644710345      -34.8968228883  MEOH      2371            0.0000000000
     39847      3063  MEOH      H1A             0.2219249222       -1.8338825625      -34.5306104075  MEOH      2371            0.0000000000
     39848      3063  MEOH      H1B            -1.2281908164       -0.9098442259      -33.9985832048  MEOH      2371            0.0000000000
     39849      3063  MEOH      H1C             0.3166306973       -0.8275668097      -33.0298924736  MEOH      2371            0.0000000000
     39850      3063  MEOH      LP1A            0.5896248054        0.3687484375      -34.6929549043  MEOH      2371            0.0000000000
     39851      3063  MEOH      LP1B            0.1146490139        0.2413043536      -35.1296528579  MEOH      2371            0.0000000000
     39852      3064  MEOH      C1             16.8037241288       -0.0588695524      -12.0044733072  MEOH      2372            0.0000000000
     39853      3064  MEOH      DC1            16.8058815602       -0.0637327195      -11.9941828075  MEOH      2372            0.0000000000
     39854      3064  MEOH      O1             17.2943038526       -0.6606453737      -13.1958352901  MEOH      2372            0.0000000000
     39855      3064  MEOH      DO1            17.2924287302       -0.6724766216      -13.1852315786  MEOH      2372            0.0000000000
     39856      3064  MEOH      HO1            16.6322935454       -0.4847468581      -13.8826409871  MEOH      2372            0.0000000000
     39857      3064  MEOH      HO2            18.1820438272       -0.2871042606      -13.3110948874  MEOH      2372            0.0000000000
     39858      3064  MEOH      H1A            17.5424365479       -0.1865460013      -11.1845198409  MEOH      2372            0.0000000000
     39859      3064  MEOH      H1B            15.8402360373       -0.5205666510      -11.6997644514  MEOH      2372            0.0000000000
     39860      3064  MEOH      H1C            16.6577407134        1.0285577144      -12.1791495307  MEOH      2372            0.0000000000
     39861      3064  MEOH      LP1A           17.4949891900       -0.4334803693      -13.3708251645  MEOH      2372            0.0000000000
     39862      3064  MEOH      LP1B           17.1855368714       -0.9927180763      -13.2157717885  MEOH      2372            0.0000000000
     39863      3065  MEOH      C1            -31.4271080651      -34.0558915888       -9.8245368796  MEOH      2373            0.0000000000
     39864      3065  MEOH      DC1           -31.4170041009      -34.0359359706       -9.8221043262  MEOH      2373            0.0000000000
     39865      3065  MEOH      O1            -31.5959872623      -35.4311240367      -10.1717352483  MEOH      2373            0.0000000000
     39866      3065  MEOH      DO1           -31.5927345107      -35.4209492407      -10.1716265346  MEOH      2373            0.0000000000
     39867      3065  MEOH      HO1           -31.1469793284      -35.5994401127      -11.0149206216  MEOH      2373            0.0000000000
     39868      3065  MEOH      HO2           -31.3706220113      -35.9397880573       -9.3771464116  MEOH      2373            0.0000000000
     39869      3065  MEOH      H1A           -32.0513835194      -33.8273070075       -8.9343963024  MEOH      2373            0.0000000000
     39870      3065  MEOH      H1B           -31.7552701801      -33.4102237871      -10.6669997671  MEOH      2373            0.0000000000
     39871      3065  MEOH      H1C           -30.3610487114      -33.8584107153       -9.5819677947  MEOH      2373            0.0000000000
     39872      3065  MEOH      LP1A          -31.3369759640      -35.6220348688      -10.0340174153  MEOH      2373            0.0000000000
     39873      3065  MEOH      LP1B          -31.8893848289      -35.4723906549      -10.3580546894  MEOH      2373            0.0000000000
     39874      3066  MEOH      C1             23.5620235007      -26.0369927276       21.5922776488  MEOH      2374            0.0000000000
     39875      3066  MEOH      DC1            23.5690220932      -26.0135669852       21.6085238099  MEOH      2374            0.0000000000
     39876      3066  MEOH      O1             23.7963125495      -24.6473380039       21.3457130217  MEOH      2374            0.0000000000
     39877      3066  MEOH      DO1            23.8056184677      -24.6149469196       21.3654645122  MEOH      2374            0.0000000000
     39878      3066  MEOH      HO1            23.6616124568      -24.5899468893       20.3868271338  MEOH      2374            0.0000000000
     39879      3066  MEOH      HO2            23.2240261640      -24.1687113011       21.9656362205  MEOH      2374            0.0000000000
     39880      3066  MEOH      H1A            23.7156889521      -26.2932703285       22.6623382650  MEOH      2374            0.0000000000
     39881      3066  MEOH      H1B            24.2542540062      -26.6404780301       20.9670229667  MEOH      2374            0.0000000000
     39882      3066  MEOH      H1C            22.5207267323      -26.2978499927       21.3059639619  MEOH      2374            0.0000000000
     39883      3066  MEOH      LP1A           23.4977407721      -24.4678098728       21.3792472419  MEOH      2374            0.0000000000
     39884      3066  MEOH      LP1B           24.1361138626      -24.5926735335       21.2820980604  MEOH      2374            0.0000000000
     39885      3067  MEOH      C1              4.7064187554       17.3835665335      -20.1353017205  MEOH      2375            0.0000000000
     39886      3067  MEOH      DC1             4.7146294362       17.3789894165      -20.1498406073  MEOH      2375            0.0000000000
     39887      3067  MEOH      O1              5.0239531532       16.7745279271      -21.3913335994  MEOH      2375            0.0000000000
     39888      3067  MEOH      DO1             5.0274663322       16.7705932512      -21.4065751813  MEOH      2375            0.0000000000
     39889      3067  MEOH      HO1             5.7795312803       16.1897434741      -21.2239154463  MEOH      2375            0.0000000000
     39890      3067  MEOH      HO2             4.1866832021       16.4213840257      -21.7306983205  MEOH      2375            0.0000000000
     39891      3067  MEOH      H1A             3.8834099266       18.1180985963      -20.2673627579  MEOH      2375            0.0000000000
     39892      3067  MEOH      H1B             5.5913879868       17.9170652058      -19.7272213037  MEOH      2375            0.0000000000
     39893      3067  MEOH      H1C             4.3769823622       16.6152319215      -19.4035540954  MEOH      2375            0.0000000000
     39894      3067  MEOH      LP1A            4.8400136097       16.4794378619      -21.4311845436  MEOH      2375            0.0000000000
     39895      3067  MEOH      LP1B            5.2524247607       16.9735546104      -21.5665166576  MEOH      2375            0.0000000000
     39896      3068  MEOH      C1              5.7479162947       20.8044757630      -16.2235899608  MEOH      2376            0.0000000000
     39897      3068  MEOH      DC1             5.7546531598       20.8071784820      -16.2323041875  MEOH      2376            0.0000000000
     39898      3068  MEOH      O1              4.3607181608       20.9569421438      -15.9235049372  MEOH      2376            0.0000000000
     39899      3068  MEOH      DO1             4.3642425624       20.9572583395      -15.9382904411  MEOH      2376            0.0000000000
     39900      3068  MEOH      HO1             4.0958389964       20.2251976400      -15.3444634788  MEOH      2376            0.0000000000
     39901      3068  MEOH      HO2             4.2577324731       21.8690968823      -15.6100281740  MEOH      2376            0.0000000000
     39902      3068  MEOH      H1A             6.0745988615       21.6320444979      -16.8889691696  MEOH      2376            0.0000000000
     39903      3068  MEOH      H1B             5.9220576730       19.8339199299      -16.7354660747  MEOH      2376            0.0000000000
     39904      3068  MEOH      H1C             6.3409131305       20.8458439891      -15.2849929107  MEOH      2376            0.0000000000
     39905      3068  MEOH      LP1A            4.3211287697       21.1552969689      -15.6378687290  MEOH      2376            0.0000000000
     39906      3068  MEOH      LP1B            4.1673008991       20.7936692437      -16.1652314830  MEOH      2376            0.0000000000
     39907      3069  MEOH      C1             25.7913987532      -11.9613157511       27.0098287917  MEOH      2377            0.0000000000
     39908      3069  MEOH      DC1            25.8096089645      -11.9888245073       27.0094230581  MEOH      2377            0.0000000000
     39909      3069  MEOH      O1             26.8039164067      -12.5086043088       26.1562706145  MEOH      2377            0.0000000000
     39910      3069  MEOH      DO1            26.8187432284      -12.5450045437       26.1507298423  MEOH      2377            0.0000000000
     39911      3069  MEOH      HO1            27.5524522619      -12.7421544096       26.7272771162  MEOH      2377            0.0000000000
     39912      3069  MEOH      HO2            26.3649611604      -13.1278083577       25.5522800205  MEOH      2377            0.0000000000
     39913      3069  MEOH      H1A            25.0441350075      -11.4005936109       26.4085729580  MEOH      2377            0.0000000000
     39914      3069  MEOH      H1B            26.2397045704      -11.2523076680       27.7382863627  MEOH      2377            0.0000000000
     39915      3069  MEOH      H1C            25.2684889836      -12.7752151814       27.5561383104  MEOH      2377            0.0000000000
     39916      3069  MEOH      LP1A           26.7586920125      -12.8540894650       26.1231834406  MEOH      2377            0.0000000000
     39917      3069  MEOH      LP1B           27.0114925266      -12.2529869196       26.0376455549  MEOH      2377            0.0000000000
     39918      3070  MEOH      C1             -8.8433344788        5.2177328072        6.8477432789  MEOH      2378            0.0000000000
     39919      3070  MEOH      DC1            -8.8317002479        5.2249503306        6.8438593710  MEOH      2378            0.0000000000
     39920      3070  MEOH      O1             -8.5391412067        6.5367083677        7.2985894507  MEOH      2378            0.0000000000
     39921      3070  MEOH      DO1            -8.5248194512        6.5434558503        7.2940906704  MEOH      2378            0.0000000000
     39922      3070  MEOH      HO1            -8.1003169662        6.9994807340        6.5677166691  MEOH      2378            0.0000000000
     39923      3070  MEOH      HO2            -9.3771789182        6.8934004178        7.6323012681  MEOH      2378            0.0000000000
     39924      3070  MEOH      H1A            -9.4258061629        4.6840773367        7.6289344066  MEOH      2378            0.0000000000
     39925      3070  MEOH      H1B            -7.9064455027        4.6532140139        6.6531190796  MEOH      2378            0.0000000000
     39926      3070  MEOH      H1C            -9.4529232593        5.2692343219        5.9203436278  MEOH      2378            0.0000000000
     39927      3070  MEOH      LP1A           -8.8079956607        6.7508121177        7.2324315575  MEOH      2378            0.0000000000
     39928      3070  MEOH      LP1B           -8.2239154979        6.5415307119        7.4506075335  MEOH      2378            0.0000000000
     39929      3071  MEOH      C1            -13.8704239814        8.4616873184      -31.0662792269  MEOH      2379            0.0000000000
     39930      3071  MEOH      DC1           -13.8657924305        8.4676812807      -31.0567959026  MEOH      2379            0.0000000000
     39931      3071  MEOH      O1            -15.0958332560        8.6183938629      -31.7770628032  MEOH      2379            0.0000000000
     39932      3071  MEOH      DO1           -15.1037525541        8.6343612686      -31.7511530073  MEOH      2379            0.0000000000
     39933      3071  MEOH      HO1           -15.6268474294        7.8070071993      -31.7530705157  MEOH      2379            0.0000000000
     39934      3071  MEOH      HO2           -15.4211775416        9.5291132069      -31.7019537273  MEOH      2379            0.0000000000
     39935      3071  MEOH      H1A           -13.1264283104        9.1668644471      -31.4946676712  MEOH      2379            0.0000000000
     39936      3071  MEOH      H1B           -13.4893359688        7.4273165334      -31.2047350173  MEOH      2379            0.0000000000
     39937      3071  MEOH      H1C           -14.0213065630        8.6748203113      -29.9864043380  MEOH      2379            0.0000000000
     39938      3071  MEOH      LP1A          -15.3437874389        8.7409647079      -31.5625980948  MEOH      2379            0.0000000000
     39939      3071  MEOH      LP1B          -15.0508529205        8.5329635494      -32.1134828248  MEOH      2379            0.0000000000
     39940      3072  MEOH      C1             18.4355007058       20.3697343673        9.7038278079  MEOH      2380            0.0000000000
     39941      3072  MEOH      DC1            18.4420425943       20.3652734651        9.7079452414  MEOH      2380            0.0000000000
     39942      3072  MEOH      O1             18.8487396848       19.1588620888       10.3421592287  MEOH      2380            0.0000000000
     39943      3072  MEOH      DO1            18.8447532157       19.1536840592       10.3596208995  MEOH      2380            0.0000000000
     39944      3072  MEOH      HO1            18.2741221202       18.4637752097        9.9849913620  MEOH      2380            0.0000000000
     39945      3072  MEOH      HO2            19.8024899245       19.0961218863       10.1768590521  MEOH      2380            0.0000000000
     39946      3072  MEOH      H1A            19.1115548172       21.1992945723       10.0023268977  MEOH      2380            0.0000000000
     39947      3072  MEOH      H1B            17.3929914546       20.6205197687        9.9946922853  MEOH      2380            0.0000000000
     39948      3072  MEOH      H1C            18.4812169506       20.2506084984        8.6001792894  MEOH      2380            0.0000000000
     39949      3072  MEOH      LP1A           19.1031694332       19.0063941225       10.1563662730  MEOH      2380            0.0000000000
     39950      3072  MEOH      LP1B           18.6715036328       19.1143872544       10.6406711563  MEOH      2380            0.0000000000
     39951      3073  MEOH      C1            -27.7686866251      -27.2840192589      -27.1732285458  MEOH      2381            0.0000000000
     39952      3073  MEOH      DC1           -27.7650954395      -27.2836489608      -27.1764827797  MEOH      2381            0.0000000000
     39953      3073  MEOH      O1            -28.3985868124      -28.3815995951      -27.8351943083  MEOH      2381            0.0000000000
     39954      3073  MEOH      DO1           -28.4012787450      -28.3774612649      -27.8231479295  MEOH      2381            0.0000000000
     39955      3073  MEOH      HO1           -29.0977068117      -28.0427232307      -28.4159645181  MEOH      2381            0.0000000000
     39956      3073  MEOH      HO2           -27.6762339311      -28.9001666061      -28.2227437505  MEOH      2381            0.0000000000
     39957      3073  MEOH      H1A           -26.9483388411      -27.6783983521      -26.5361919346  MEOH      2381            0.0000000000
     39958      3073  MEOH      H1B           -28.4906472466      -26.7385483410      -26.5285927260  MEOH      2381            0.0000000000
     39959      3073  MEOH      H1C           -27.3246412813      -26.5871869306      -27.9159057565  MEOH      2381            0.0000000000
     39960      3073  MEOH      LP1A          -28.2314259503      -28.4528895354      -28.1343180128  MEOH      2381            0.0000000000
     39961      3073  MEOH      LP1B          -28.6643389718      -28.5016010450      -27.6416085604  MEOH      2381            0.0000000000
     39962      3074  MEOH      C1             26.0951069623      -17.9327193717      -11.9104656519  MEOH      2382            0.0000000000
     39963      3074  MEOH      DC1            26.1007150537      -17.9201284973      -11.9047828555  MEOH      2382            0.0000000000
     39964      3074  MEOH      O1             26.3557215510      -19.3006187245      -12.1752865037  MEOH      2382            0.0000000000
     39965      3074  MEOH      DO1            26.3565700230      -19.2866045989      -12.1736484516  MEOH      2382            0.0000000000
     39966      3074  MEOH      HO1            27.0837928896      -19.3741628648      -12.8119994584  MEOH      2382            0.0000000000
     39967      3074  MEOH      HO2            26.3837614416      -19.7481291158      -11.3151422051  MEOH      2382            0.0000000000
     39968      3074  MEOH      H1A            25.1625876418      -17.8715190069      -11.3096468499  MEOH      2382            0.0000000000
     39969      3074  MEOH      H1B            25.9476855756      -17.3847709292      -12.8656307890  MEOH      2382            0.0000000000
     39970      3074  MEOH      H1C            26.9306650064      -17.4852041991      -11.3309020862  MEOH      2382            0.0000000000
     39971      3074  MEOH      LP1A           26.5895739367      -19.4244579473      -11.9462081140  MEOH      2382            0.0000000000
     39972      3074  MEOH      LP1B           26.1574942601      -19.4108220319      -12.4418595184  MEOH      2382            0.0000000000
     39973      3075  MEOH      C1            -35.7697718982      -25.2628734157       12.7659789003  MEOH      2383            0.0000000000
     39974      3075  MEOH      DC1           -35.7679534382      -25.2646282385       12.7654787295  MEOH      2383            0.0000000000
     39975      3075  MEOH      O1            -34.9614233677      -26.4180904147       12.9743491172  MEOH      2383            0.0000000000
     39976      3075  MEOH      DO1           -34.9592062211      -26.4181115527       12.9767496849  MEOH      2383            0.0000000000
     39977      3075  MEOH      HO1           -34.6020584514      -26.3597577477       13.8734342949  MEOH      2383            0.0000000000
     39978      3075  MEOH      HO2           -35.5140740323      -27.1722167755       12.7159488924  MEOH      2383            0.0000000000
     39979      3075  MEOH      H1A           -36.0705063949      -25.2475416534       11.6965656502  MEOH      2383            0.0000000000
     39980      3075  MEOH      H1B           -35.1961562025      -24.3363303799       12.9823213101  MEOH      2383            0.0000000000
     39981      3075  MEOH      H1C           -36.6791597240      -25.3035237509       13.4029108694  MEOH      2383            0.0000000000
     39982      3075  MEOH      LP1A          -35.1564883006      -26.6793050555       13.1016934668  MEOH      2383            0.0000000000
     39983      3075  MEOH      LP1B          -34.6330024584      -26.3545438591       12.8713853294  MEOH      2383            0.0000000000
     39984      3076  MEOH      C1             -1.3830832501      -12.4271231450      -23.6089631877  MEOH      2384            0.0000000000
     39985      3076  MEOH      DC1            -1.3729481472      -12.4316863602      -23.6252007666  MEOH      2384            0.0000000000
     39986      3076  MEOH      O1             -1.8343095212      -11.7561275742      -24.7900585741  MEOH      2384            0.0000000000
     39987      3076  MEOH      DO1            -1.8276710460      -11.7520288251      -24.7986723739  MEOH      2384            0.0000000000
     39988      3076  MEOH      HO1            -1.9063095267      -12.4215455265      -25.4921518360  MEOH      2384            0.0000000000
     39989      3076  MEOH      HO2            -2.6266093850      -11.2660538610      -24.5198943992  MEOH      2384            0.0000000000
     39990      3076  MEOH      H1A            -1.3081509092      -11.6991607890      -22.7730343910  MEOH      2384            0.0000000000
     39991      3076  MEOH      H1B            -0.3866327331      -12.8879165789      -23.7794823313  MEOH      2384            0.0000000000
     39992      3076  MEOH      H1C            -2.1091083402      -13.2125912076      -23.3085493188  MEOH      2384            0.0000000000
     39993      3076  MEOH      LP1A           -2.1841653864      -11.7525666352      -24.7994497020  MEOH      2384            0.0000000000
     39994      3076  MEOH      LP1B           -1.5601678669      -11.6375169265      -24.9724807978  MEOH      2384            0.0000000000
     39995      3077  MEOH      C1            -25.6211409382       18.9993436180      -16.5477184098  MEOH      2385            0.0000000000
     39996      3077  MEOH      DC1           -25.6127118628       19.0078863514      -16.5429149528  MEOH      2385            0.0000000000
     39997      3077  MEOH      O1            -26.4383773833       19.6453329327      -15.5705208348  MEOH      2385            0.0000000000
     39998      3077  MEOH      DO1           -26.4360976683       19.6501452470      -15.5669414509  MEOH      2385            0.0000000000
     39999      3077  MEOH      HO1           -27.3493144568       19.3583064584      -15.7399594699  MEOH      2385            0.0000000000
     40000      3077  MEOH      HO2           -26.0149414729       19.4744376669      -14.7147189659  MEOH      2385            0.0000000000
     40001      3077  MEOH      H1A           -24.5631300259       19.3046621927      -16.4003600724  MEOH      2385            0.0000000000
     40002      3077  MEOH      H1B           -25.9537078465       19.2887777036      -17.5674968967  MEOH      2385            0.0000000000
     40003      3077  MEOH      H1C           -25.6902391633       17.8958801519      -16.4385634083  MEOH      2385            0.0000000000
     40004      3077  MEOH      LP1A          -26.4598843047       19.4473815641      -15.2826793715  MEOH      2385            0.0000000000
     40005      3077  MEOH      LP1B          -26.5445569113       19.9566453967      -15.6901471595  MEOH      2385            0.0000000000
     40006      3078  MEOH      C1             -0.3890068830        0.4128980144      -13.6958985423  MEOH      2386            0.0000000000
     40007      3078  MEOH      DC1            -0.3902160477        0.4105081340      -13.6979319361  MEOH      2386            0.0000000000
     40008      3078  MEOH      O1             -1.2833608518       -0.5882167707      -14.1719459761  MEOH      2386            0.0000000000
     40009      3078  MEOH      DO1            -1.2744653958       -0.5981342578      -14.1788467717  MEOH      2386            0.0000000000
     40010      3078  MEOH      HO1            -1.8194118617       -0.8867899976      -13.4206781524  MEOH      2386            0.0000000000
     40011      3078  MEOH      HO2            -1.7242047454       -0.1918685792      -14.9397120691  MEOH      2386            0.0000000000
     40012      3078  MEOH      H1A             0.2017730185        0.8285952253      -14.5399932863  MEOH      2386            0.0000000000
     40013      3078  MEOH      H1B             0.2971916667       -0.0159768844      -12.9346371724  MEOH      2386            0.0000000000
     40014      3078  MEOH      H1C            -0.9616325102        1.2424129980      -13.2286450953  MEOH      2386            0.0000000000
     40015      3078  MEOH      LP1A           -1.5798017512       -0.4401288117      -14.2846080795  MEOH      2386            0.0000000000
     40016      3078  MEOH      LP1B           -1.1328946529       -0.9034504454      -14.1498631018  MEOH      2386            0.0000000000
     40017      3079  MEOH      C1            -28.1861679457      -28.5991700870        5.1028869668  MEOH      2387            0.0000000000
     40018      3079  MEOH      DC1           -28.1856472780      -28.6117423193        5.0924790906  MEOH      2387            0.0000000000
     40019      3079  MEOH      O1            -28.3606162988      -27.4508723726        5.9284668507  MEOH      2387            0.0000000000
     40020      3079  MEOH      DO1           -28.3430912316      -27.4589265232        5.9120640674  MEOH      2387            0.0000000000
     40021      3079  MEOH      HO1           -28.0672310288      -27.6507904282        6.8311616244  MEOH      2387            0.0000000000
     40022      3079  MEOH      HO2           -28.0261394798      -26.6892432741        5.4295215879  MEOH      2387            0.0000000000
     40023      3079  MEOH      H1A           -28.7636948163      -28.4353194666        4.1680411568  MEOH      2387            0.0000000000
     40024      3079  MEOH      H1B           -28.5783931268      -29.5065476450        5.6099829879  MEOH      2387            0.0000000000
     40025      3079  MEOH      H1C           -27.1122921749      -28.7336988816        4.8518614010  MEOH      2387            0.0000000000
     40026      3079  MEOH      LP1A          -28.0738443902      -27.2505440033        5.9170468286  MEOH      2387            0.0000000000
     40027      3079  MEOH      LP1B          -28.6808854639      -27.4524614670        6.0696232770  MEOH      2387            0.0000000000
     40028      3080  MEOH      C1            -25.3609184383       -7.7805709005       -0.2304079148  MEOH      2388            0.0000000000
     40029      3080  MEOH      DC1           -25.3692829128       -7.7785962106       -0.2307517788  MEOH      2388            0.0000000000
     40030      3080  MEOH      O1            -26.0047911412       -8.9059216166       -0.8359328584  MEOH      2388            0.0000000000
     40031      3080  MEOH      DO1           -26.0123031914       -8.9070367684       -0.8331788715  MEOH      2388            0.0000000000
     40032      3080  MEOH      HO1           -25.8321284292       -9.6729622945       -0.2678341113  MEOH      2388            0.0000000000
     40033      3080  MEOH      HO2           -26.9112903011       -8.6284000394       -1.0412157068  MEOH      2388            0.0000000000
     40034      3080  MEOH      H1A           -25.4007236221       -6.9104615078       -0.9200789907  MEOH      2388            0.0000000000
     40035      3080  MEOH      H1B           -24.3010452644       -8.0293219669       -0.0087939210  MEOH      2388            0.0000000000
     40036      3080  MEOH      H1C           -25.8555582804       -7.4943719113        0.7223473357  MEOH      2388            0.0000000000
     40037      3080  MEOH      LP1A          -26.3341026326       -8.9319525899       -0.7202767731  MEOH      2388            0.0000000000
     40038      3080  MEOH      LP1B          -25.7869325912       -9.0614522342       -1.0614276015  MEOH      2388            0.0000000000
     40039      3081  MEOH      C1              2.1948237462      -18.2190331321      -27.4741439936  MEOH      2389            0.0000000000
     40040      3081  MEOH      DC1             2.2013471634      -18.2212739556      -27.4834244406  MEOH      2389            0.0000000000
     40041      3081  MEOH      O1              1.6076877862      -16.9946124716      -27.9201120158  MEOH      2389            0.0000000000
     40042      3081  MEOH      DO1             1.6116857977      -17.0050413307      -27.9242800947  MEOH      2389            0.0000000000
     40043      3081  MEOH      HO1             2.2387311333      -16.5018064876      -28.4676762199  MEOH      2389            0.0000000000
     40044      3081  MEOH      HO2             0.7221577096      -17.2175594515      -28.2472681368  MEOH      2389            0.0000000000
     40045      3081  MEOH      H1A             1.5200756098      -18.6921707759      -26.7290421734  MEOH      2389            0.0000000000
     40046      3081  MEOH      H1B             3.1821086081      -18.0264775464      -27.0024322708  MEOH      2389            0.0000000000
     40047      3081  MEOH      H1C             2.3294367033      -18.9312658328      -28.3161207939  MEOH      2389            0.0000000000
     40048      3081  MEOH      LP1A            1.4398219914      -17.0456766140      -28.2229544308  MEOH      2389            0.0000000000
     40049      3081  MEOH      LP1B            1.6675212694      -16.7410558910      -27.6863835093  MEOH      2389            0.0000000000
     40050      3082  MEOH      C1            -13.9889460106       32.2028315607        3.8445932826  MEOH      2390            0.0000000000
     40051      3082  MEOH      DC1           -13.9882244715       32.2071703934        3.8610675083  MEOH      2390            0.0000000000
     40052      3082  MEOH      O1            -14.9546444300       33.0785156726        3.2682862900  MEOH      2390            0.0000000000
     40053      3082  MEOH      DO1           -14.9556371885       33.0839647033        3.2804417039  MEOH      2390            0.0000000000
     40054      3082  MEOH      HO1           -14.8840893902       32.9493460243        2.3095177105  MEOH      2390            0.0000000000
     40055      3082  MEOH      HO2           -15.7895788819       32.8834473252        3.7218640684  MEOH      2390            0.0000000000
     40056      3082  MEOH      H1A           -13.9640677129       32.3596842633        4.9441837975  MEOH      2390            0.0000000000
     40057      3082  MEOH      H1B           -12.9792167927       32.4297122102        3.4404979009  MEOH      2390            0.0000000000
     40058      3082  MEOH      H1C           -14.2520296300       31.1471183805        3.6196984362  MEOH      2390            0.0000000000
     40059      3082  MEOH      LP1A          -15.2629592042       32.9151771872        3.2406721765  MEOH      2390            0.0000000000
     40060      3082  MEOH      LP1B          -14.8115759582       33.3924985464        3.2095822245  MEOH      2390            0.0000000000
     40061      3083  MEOH      C1             32.9356383356       36.4908698652       -0.0513782574  MEOH      2391            0.0000000000
     40062      3083  MEOH      DC1            32.9336374867       36.4858435582       -0.0576238790  MEOH      2391            0.0000000000
     40063      3083  MEOH      O1             34.1294660392       36.0386505019        0.5870211183  MEOH      2391            0.0000000000
     40064      3083  MEOH      DO1            34.1252747040       36.0268834186        0.5855556483  MEOH      2391            0.0000000000
     40065      3083  MEOH      HO1            34.6166916814       35.5093587526       -0.0636411733  MEOH      2391            0.0000000000
     40066      3083  MEOH      HO2            34.5446558716       36.8380276680        0.9469010287  MEOH      2391            0.0000000000
     40067      3083  MEOH      H1A            32.3778528364       37.1557576541        0.6422502929  MEOH      2391            0.0000000000
     40068      3083  MEOH      H1B            32.2890390556       35.6254322887       -0.3107007832  MEOH      2391            0.0000000000
     40069      3083  MEOH      H1C            33.1784925224       37.0790925001       -0.9620576617  MEOH      2391            0.0000000000
     40070      3083  MEOH      LP1A           34.3850790782       36.2736748576        0.5431402965  MEOH      2391            0.0000000000
     40071      3083  MEOH      LP1B           34.0710112924       35.7332101525        0.7476113904  MEOH      2391            0.0000000000
     40072      3084  MEOH      C1             11.9520295281      -10.0967315565       18.1787350523  MEOH      2392            0.0000000000
     40073      3084  MEOH      DC1            11.9548806245      -10.0901008476       18.1806300624  MEOH      2392            0.0000000000
     40074      3084  MEOH      O1             10.7070834051      -10.6425252814       17.7330056665  MEOH      2392            0.0000000000
     40075      3084  MEOH      DO1            10.7076057526      -10.6269449645       17.7337498644  MEOH      2392            0.0000000000
     40076      3084  MEOH      HO1            10.3947325688      -11.2964889060       18.3777292767  MEOH      2392            0.0000000000
     40077      3084  MEOH      HO2            10.1621224322       -9.9082523813       17.4093378642  MEOH      2392            0.0000000000
     40078      3084  MEOH      H1A            12.4552766966       -9.5743367086       17.3372085162  MEOH      2392            0.0000000000
     40079      3084  MEOH      H1B            12.6176219658      -10.9099464105       18.5392753524  MEOH      2392            0.0000000000
     40080      3084  MEOH      H1C            11.7805832763       -9.3536388665       18.9866585872  MEOH      2392            0.0000000000
     40081      3084  MEOH      LP1A           10.4415788648      -10.4483801501       17.8526510053  MEOH      2392            0.0000000000
     40082      3084  MEOH      LP1B           10.7646550487      -10.9213467686       17.5294274649  MEOH      2392            0.0000000000
     40083      3085  MEOH      C1             -6.3768906388      -13.6457921201       22.2070733953  MEOH      2393            0.0000000000
     40084      3085  MEOH      DC1            -6.3864318439      -13.6728860351       22.1959261192  MEOH      2393            0.0000000000
     40085      3085  MEOH      O1             -5.0928781919      -13.0963574188       22.4864896863  MEOH      2393            0.0000000000
     40086      3085  MEOH      DO1            -5.1020967281      -13.1274271645       22.4801607232  MEOH      2393            0.0000000000
     40087      3085  MEOH      HO1            -4.7404966615      -12.6915148169       21.6785108963  MEOH      2393            0.0000000000
     40088      3085  MEOH      HO2            -5.2366175366      -12.4959440571       23.2346492922  MEOH      2393            0.0000000000
     40089      3085  MEOH      H1A            -6.8494838890      -13.9537589881       23.1642217798  MEOH      2393            0.0000000000
     40090      3085  MEOH      H1B            -6.2613279699      -14.5316861401       21.5466507614  MEOH      2393            0.0000000000
     40091      3085  MEOH      H1C            -7.0191528619      -12.8793391241       21.7229555980  MEOH      2393            0.0000000000
     40092      3085  MEOH      LP1A           -5.1255929701      -12.7660518614       22.5975211326  MEOH      2393            0.0000000000
     40093      3085  MEOH      LP1B           -4.8451834152      -13.3378515233       22.4333117296  MEOH      2393            0.0000000000
     40094      3086  MEOH      C1             23.9279602161       33.3289913385       -4.8752104542  MEOH      2394            0.0000000000
     40095      3086  MEOH      DC1            23.9249651863       33.3439156744       -4.8653209696  MEOH      2394            0.0000000000
     40096      3086  MEOH      O1             24.5264983841       34.5759218985       -4.5273677103  MEOH      2394            0.0000000000
     40097      3086  MEOH      DO1            24.5309295534       34.5835114115       -4.5172572938  MEOH      2394            0.0000000000
     40098      3086  MEOH      HO1            24.9505830947       34.9032143638       -5.3360282079  MEOH      2394            0.0000000000
     40099      3086  MEOH      HO2            23.8304404056       35.0896654412       -4.0886526958  MEOH      2394            0.0000000000
     40100      3086  MEOH      H1A            23.5265748437       32.8263331207       -3.9693707877  MEOH      2394            0.0000000000
     40101      3086  MEOH      H1B            24.6724189712       32.6636461022       -5.3624659109  MEOH      2394            0.0000000000
     40102      3086  MEOH      H1C            23.0958355921       33.5061817679       -5.5896984959  MEOH      2394            0.0000000000
     40103      3086  MEOH      LP1A           24.2973588994       34.8361455942       -4.5751037003  MEOH      2394            0.0000000000
     40104      3086  MEOH      LP1B           24.8522711159       34.5238605089       -4.4104842689  MEOH      2394            0.0000000000
     40105      3087  MEOH      C1             18.2186006169        1.9262542188       27.9732750117  MEOH      2395            0.0000000000
     40106      3087  MEOH      DC1            18.2220645014        1.9261256601       27.9767972448  MEOH      2395            0.0000000000
     40107      3087  MEOH      O1             16.9143809381        1.3849943271       28.1855515825  MEOH      2395            0.0000000000
     40108      3087  MEOH      DO1            16.9151798191        1.3715512557       28.1816411684  MEOH      2395            0.0000000000
     40109      3087  MEOH      HO1            16.3974962712        1.5551438835       27.3825700320  MEOH      2395            0.0000000000
     40110      3087  MEOH      HO2            17.0339078685        0.4929424839       28.5472929568  MEOH      2395            0.0000000000
     40111      3087  MEOH      H1A            18.8032196342        1.8786252123       28.9168178472  MEOH      2395            0.0000000000
     40112      3087  MEOH      H1B            18.1386643321        2.9850475036       27.6463377520  MEOH      2395            0.0000000000
     40113      3087  MEOH      H1C            18.7454465965        1.3368027187       27.1926975054  MEOH      2395            0.0000000000
     40114      3087  MEOH      LP1A           16.9057031247        1.0502090152       28.0838486302  MEOH      2395            0.0000000000
     40115      3087  MEOH      LP1B           16.7075317097        1.6255666741       28.3333296004  MEOH      2395            0.0000000000
     40116      3088  MEOH      C1             15.7074317168      -28.2826070376       11.9377347120  MEOH      2396            0.0000000000
     40117      3088  MEOH      DC1            15.7007059639      -28.2706095996       11.9260315217  MEOH      2396            0.0000000000
     40118      3088  MEOH      O1             14.5103286260      -27.5560409599       11.6748991323  MEOH      2396            0.0000000000
     40119      3088  MEOH      DO1            14.5012804810      -27.5503095325       11.6809260138  MEOH      2396            0.0000000000
     40120      3088  MEOH      HO1            13.9436294900      -28.1564385555       11.1657087785  MEOH      2396            0.0000000000
     40121      3088  MEOH      HO2            14.2160869215      -27.2078838151       12.5311166414  MEOH      2396            0.0000000000
     40122      3088  MEOH      H1A            16.4547816384      -27.6309102143       12.4388138944  MEOH      2396            0.0000000000
     40123      3088  MEOH      H1B            16.1170147749      -28.6627091617       10.9774820920  MEOH      2396            0.0000000000
     40124      3088  MEOH      H1C            15.4929606197      -29.1532984074       12.5936460529  MEOH      2396            0.0000000000
     40125      3088  MEOH      LP1A           14.2813747429      -27.6043686985       11.9351769628  MEOH      2396            0.0000000000
     40126      3088  MEOH      LP1B           14.5423709789      -27.3765859039       11.3761196643  MEOH      2396            0.0000000000
     40127      3089  MEOH      C1            -31.5623671605      -15.6692287038      -27.5450452115  MEOH      2397            0.0000000000
     40128      3089  MEOH      DC1           -31.5710495228      -15.6718839825      -27.5428158904  MEOH      2397            0.0000000000
     40129      3089  MEOH      O1            -32.2155447310      -14.4779719833      -27.9559490173  MEOH      2397            0.0000000000
     40130      3089  MEOH      DO1           -32.2227591262      -14.4728351876      -27.9530832120  MEOH      2397            0.0000000000
     40131      3089  MEOH      HO1           -31.5167925640      -13.9291276529      -28.3450702197  MEOH      2397            0.0000000000
     40132      3089  MEOH      HO2           -32.9685294172      -14.7713010280      -28.4924861875  MEOH      2397            0.0000000000
     40133      3089  MEOH      H1A           -32.2917561223      -16.3449143151      -27.0493016315  MEOH      2397            0.0000000000
     40134      3089  MEOH      H1B           -30.7381091749      -15.4367088360      -26.8373346171  MEOH      2397            0.0000000000
     40135      3089  MEOH      H1C           -31.1362079267      -16.1782125874      -28.4359126057  MEOH      2397            0.0000000000
     40136      3089  MEOH      LP1A          -32.3344924811      -14.5134434229      -28.2832000062  MEOH      2397            0.0000000000
     40137      3089  MEOH      LP1B          -32.2167563040      -14.2456988122      -27.6941328489  MEOH      2397            0.0000000000
     40138      3090  MEOH      C1             26.1868146475      -13.1249533850       35.9867229041  MEOH      2398            0.0000000000
     40139      3090  MEOH      DC1            26.1770452375      -13.1363661356       35.9768363729  MEOH      2398            0.0000000000
     40140      3090  MEOH      O1             27.0497016585      -13.8184066091       36.8771737544  MEOH      2398            0.0000000000
     40141      3090  MEOH      DO1            27.0459256051      -13.8207096387       36.8629407440  MEOH      2398            0.0000000000
     40142      3090  MEOH      HO1            27.7101696989      -14.3065380839       36.3610249071  MEOH      2398            0.0000000000
     40143      3090  MEOH      HO2            27.3494433965      -13.1592096749       37.5225529394  MEOH      2398            0.0000000000
     40144      3090  MEOH      H1A            25.4436730762      -12.5438267407       36.5735392539  MEOH      2398            0.0000000000
     40145      3090  MEOH      H1B            25.6554684810      -13.8524202772       35.3365043455  MEOH      2398            0.0000000000
     40146      3090  MEOH      H1C            26.7847881428      -12.4133054895       35.3781951954  MEOH      2398            0.0000000000
     40147      3090  MEOH      LP1A           27.3195116834      -13.6139086795       36.9659608439  MEOH      2398            0.0000000000
     40148      3090  MEOH      LP1B           26.9194396040      -14.1355851635       36.9473845924  MEOH      2398            0.0000000000
     40149      3091  MEOH      C1             28.2470401070      -12.8999785014        2.8989355624  MEOH      2399            0.0000000000
     40150      3091  MEOH      DC1            28.2459491772      -12.8988428779        2.8912892678  MEOH      2399            0.0000000000
     40151      3091  MEOH      O1             28.7321880290      -13.6142367109        1.7600515860  MEOH      2399            0.0000000000
     40152      3091  MEOH      DO1            28.7419090328      -13.6079234452        1.7552099802  MEOH      2399            0.0000000000
     40153      3091  MEOH      HO1            29.2366259717      -12.9881929743        1.2173623546  MEOH      2399            0.0000000000
     40154      3091  MEOH      HO2            29.1484562034      -14.4187956202        2.1069028075  MEOH      2399            0.0000000000
     40155      3091  MEOH      H1A            27.5730824915      -13.5564923513        3.4897753862  MEOH      2399            0.0000000000
     40156      3091  MEOH      H1B            27.6786776455      -12.0023944162        2.5739310638  MEOH      2399            0.0000000000
     40157      3091  MEOH      H1C            29.0955498846      -12.5853273449        3.5434096175  MEOH      2399            0.0000000000
     40158      3091  MEOH      LP1A           29.0439667378      -13.7562275074        1.8316941046  MEOH      2399            0.0000000000
     40159      3091  MEOH      LP1B           28.4966466811      -13.6014658697        1.5014840339  MEOH      2399            0.0000000000
     40160      3092  MEOH      C1            -35.4462363841        3.1042529978       -0.9687412836  MEOH      2400            0.0000000000
     40161      3092  MEOH      DC1           -35.4388302560        3.1008505442       -0.9906943299  MEOH      2400            0.0000000000
     40162      3092  MEOH      O1            -34.3421581037        3.8309646078       -1.5040185536  MEOH      2400            0.0000000000
     40163      3092  MEOH      DO1           -34.3395719567        3.8254991608       -1.5158449487  MEOH      2400            0.0000000000
     40164      3092  MEOH      HO1           -34.1904982429        4.5687627489       -0.8928285741  MEOH      2400            0.0000000000
     40165      3092  MEOH      HO2           -33.6495970148        3.1731313567       -1.6728810772  MEOH      2400            0.0000000000
     40166      3092  MEOH      H1A           -35.8126039186        2.3489123317       -1.6964474803  MEOH      2400            0.0000000000
     40167      3092  MEOH      H1B           -36.2721798056        3.8069157475       -0.7270730718  MEOH      2400            0.0000000000
     40168      3092  MEOH      H1C           -35.1326882700        2.6004903544       -0.0294693413  MEOH      2400            0.0000000000
     40169      3092  MEOH      LP1A          -34.0418553085        3.7014893134       -1.3793013560  MEOH      2400            0.0000000000
     40170      3092  MEOH      LP1B          -34.4564530430        4.0750249176       -1.7273372318  MEOH      2400            0.0000000000
     40171      3093  MEOH      C1              5.5476171988      -34.5791146783      -28.8405221643  MEOH      2401            0.0000000000
     40172      3093  MEOH      DC1             5.5412929197      -34.5821903568      -28.8418738364  MEOH      2401            0.0000000000
     40173      3093  MEOH      O1              5.9270681441      -34.3619986779      -30.2023784766  MEOH      2401            0.0000000000
     40174      3093  MEOH      DO1             5.9301930447      -34.3628335542      -30.2005348113  MEOH      2401            0.0000000000
     40175      3093  MEOH      HO1             5.3673204946      -33.6536394777      -30.5570752670  MEOH      2401            0.0000000000
     40176      3093  MEOH      HO2             6.8924741476      -34.2681078732      -30.1936741561  MEOH      2401            0.0000000000
     40177      3093  MEOH      H1A             6.0790750834      -35.4649934343      -28.4317528549  MEOH      2401            0.0000000000
     40178      3093  MEOH      H1B             4.4507494620      -34.7426656405      -28.7737894792  MEOH      2401            0.0000000000
     40179      3093  MEOH      H1C             5.8249949664      -33.6944838991      -28.2283040997  MEOH      2401            0.0000000000
     40180      3093  MEOH      LP1A            6.1837870376      -34.1246637902      -30.2187357623  MEOH      2401            0.0000000000
     40181      3093  MEOH      LP1B            5.7418011329      -34.5712368890      -30.4130808867  MEOH      2401            0.0000000000
     40182      3094  MEOH      C1             -3.9369186584       12.3888146941       -8.6600926696  MEOH      2402            0.0000000000
     40183      3094  MEOH      DC1            -3.9261991834       12.4019926180       -8.6522879639  MEOH      2402            0.0000000000
     40184      3094  MEOH      O1             -3.7885612768       11.8744424586       -9.9886082519  MEOH      2402            0.0000000000
     40185      3094  MEOH      DO1            -3.7826748086       11.8945232592       -9.9989754102  MEOH      2402            0.0000000000
     40186      3094  MEOH      HO1            -3.1733361115       11.1286383711       -9.9100317934  MEOH      2402            0.0000000000
     40187      3094  MEOH      HO2            -4.6924801947       11.6823518587      -10.2834502286  MEOH      2402            0.0000000000
     40188      3094  MEOH      H1A            -4.7410550377       13.1550484813       -8.6361872795  MEOH      2402            0.0000000000
     40189      3094  MEOH      H1B            -2.9807907581       12.8495756013       -8.3317029245  MEOH      2402            0.0000000000
     40190      3094  MEOH      H1C            -4.2048189133       11.5673877523       -7.9616599708  MEOH      2402            0.0000000000
     40191      3094  MEOH      LP1A           -4.0330255782       11.6318771555      -10.0510524595  MEOH      2402            0.0000000000
     40192      3094  MEOH      LP1B           -3.5265246113       12.0390473396      -10.1521381241  MEOH      2402            0.0000000000
     40193      3095  MEOH      C1            -15.7893017274      -20.2218880738       -0.1945699838  MEOH      2403            0.0000000000
     40194      3095  MEOH      DC1           -15.7848922204      -20.2140656871       -0.1869079287  MEOH      2403            0.0000000000
     40195      3095  MEOH      O1            -14.8706457116      -21.1490102044        0.3714323312  MEOH      2403            0.0000000000
     40196      3095  MEOH      DO1           -14.8720174050      -21.1423712668        0.3871409557  MEOH      2403            0.0000000000
     40197      3095  MEOH      HO1           -14.9347801713      -21.9500024526       -0.1718891124  MEOH      2403            0.0000000000
     40198      3095  MEOH      HO2           -14.0312296335      -20.6680859503        0.4420900256  MEOH      2403            0.0000000000
     40199      3095  MEOH      H1A           -15.8265988981      -19.2998779034        0.4241603036  MEOH      2403            0.0000000000
     40200      3095  MEOH      H1B           -16.8118393456      -20.6556096471       -0.2195383008  MEOH      2403            0.0000000000
     40201      3095  MEOH      H1C           -15.4999090324      -19.9728308160       -1.2379027928  MEOH      2403            0.0000000000
     40202      3095  MEOH      LP1A          -14.5548458771      -21.1085230753        0.2260663898  MEOH      2403            0.0000000000
     40203      3095  MEOH      LP1B          -15.0289545244      -21.3377906811        0.6200288948  MEOH      2403            0.0000000000
     40204      3096  MEOH      C1            -13.4950688700       -9.8656767689       27.9120822361  MEOH      2404            0.0000000000
     40205      3096  MEOH      DC1           -13.4935480630       -9.8797890272       27.9080043425  MEOH      2404            0.0000000000
     40206      3096  MEOH      O1            -13.2482957794       -8.4596036078       27.8467185204  MEOH      2404            0.0000000000
     40207      3096  MEOH      DO1           -13.2442316626       -8.4735495166       27.8379835134  MEOH      2404            0.0000000000
     40208      3096  MEOH      HO1           -13.5368176446       -8.0588135107       28.6815972130  MEOH      2404            0.0000000000
     40209      3096  MEOH      HO2           -12.3322134112       -8.3611961997       27.5433885380  MEOH      2404            0.0000000000
     40210      3096  MEOH      H1A           -13.2845224650      -10.3216113411       26.9210651436  MEOH      2404            0.0000000000
     40211      3096  MEOH      H1B           -14.5577267743      -10.0516457047       28.1775906795  MEOH      2404            0.0000000000
     40212      3096  MEOH      H1C           -12.8310663103      -10.3307516720       28.6717709463  MEOH      2404            0.0000000000
     40213      3096  MEOH      LP1A          -12.9254428017       -8.3892379047       27.9621075262  MEOH      2404            0.0000000000
     40214      3096  MEOH      LP1B          -13.5255475648       -8.2956458138       27.7097904762  MEOH      2404            0.0000000000
     40215      3097  MEOH      C1            -27.0876848503       10.1763059269       -6.5096927707  MEOH      2405            0.0000000000
     40216      3097  MEOH      DC1           -27.0745834829       10.1755213069       -6.5047400604  MEOH      2405            0.0000000000
     40217      3097  MEOH      O1            -28.3753232719       10.2775539205       -7.1044312859  MEOH      2405            0.0000000000
     40218      3097  MEOH      DO1           -28.3690323950       10.2975406009       -7.0916444798  MEOH      2405            0.0000000000
     40219      3097  MEOH      HO1           -28.9949600552        9.7569706179       -6.5696946380  MEOH      2405            0.0000000000
     40220      3097  MEOH      HO2           -28.5198874081       11.2076074108       -7.3389557318  MEOH      2405            0.0000000000
     40221      3097  MEOH      H1A           -26.3060074532       10.4544616072       -7.2485641156  MEOH      2405            0.0000000000
     40222      3097  MEOH      H1B           -26.9046786824        9.1201768494       -6.2174238605  MEOH      2405            0.0000000000
     40223      3097  MEOH      H1C           -27.0108940762       10.8552937865       -5.6336792640  MEOH      2405            0.0000000000
     40224      3097  MEOH      LP1A          -28.5456146869       10.5544969234       -6.9748033292  MEOH      2405            0.0000000000
     40225      3097  MEOH      LP1B          -28.4175030617       10.0244037380       -7.3424141644  MEOH      2405            0.0000000000
     40226      3098  MEOH      C1            -25.3293493972       35.5621615242      -26.5283773368  MEOH      2406            0.0000000000
     40227      3098  MEOH      DC1           -25.3242433141       35.5650337224      -26.5435505823  MEOH      2406            0.0000000000
     40228      3098  MEOH      O1            -25.2372578365       36.2635092113      -27.7714372321  MEOH      2406            0.0000000000
     40229      3098  MEOH      DO1           -25.2305327626       36.2673327260      -27.7786411599  MEOH      2406            0.0000000000
     40230      3098  MEOH      HO1           -26.1443047767       36.4256847791      -28.0745295173  MEOH      2406            0.0000000000
     40231      3098  MEOH      HO2           -24.6380141939       37.0099561884      -27.6145169726  MEOH      2406            0.0000000000
     40232      3098  MEOH      H1A           -24.3115301591       35.2975778393      -26.1701030394  MEOH      2406            0.0000000000
     40233      3098  MEOH      H1B           -25.9181976080       34.6284916247      -26.6542316354  MEOH      2406            0.0000000000
     40234      3098  MEOH      H1C           -25.8201967703       36.1999194235      -25.7624434501  MEOH      2406            0.0000000000
     40235      3098  MEOH      LP1A          -25.2265443203       36.6085479552      -27.7137008845  MEOH      2406            0.0000000000
     40236      3098  MEOH      LP1B          -25.2210999616       36.0355923810      -28.0365652041  MEOH      2406            0.0000000000
     40237      3099  MEOH      C1             -6.7868470188       11.8578498591       10.8276256935  MEOH      2407            0.0000000000
     40238      3099  MEOH      DC1            -6.7856416443       11.8649268508       10.8203917047  MEOH      2407            0.0000000000
     40239      3099  MEOH      O1             -7.7138231496       12.8683091522       10.4448360603  MEOH      2407            0.0000000000
     40240      3099  MEOH      DO1            -7.7164353802       12.8774521478       10.4317877582  MEOH      2407            0.0000000000
     40241      3099  MEOH      HO1            -8.0502308828       13.2142047001       11.2863145846  MEOH      2407            0.0000000000
     40242      3099  MEOH      HO2            -7.2176683562       13.4576549375        9.8554279097  MEOH      2407            0.0000000000
     40243      3099  MEOH      H1A            -6.3223461416       11.3958705006        9.9303325372  MEOH      2407            0.0000000000
     40244      3099  MEOH      H1B            -7.3296603790       11.0719508895       11.3951091433  MEOH      2407            0.0000000000
     40245      3099  MEOH      H1C            -5.9793780886       12.2852003405       11.4598333294  MEOH      2407            0.0000000000
     40246      3099  MEOH      LP1A           -7.5492600092       13.1754436121       10.4118603672  MEOH      2407            0.0000000000
     40247      3099  MEOH      LP1B           -8.0320598352       12.7289420847       10.4023833521  MEOH      2407            0.0000000000
     40248      3100  MEOH      C1            -35.8426859141       34.0107390492       26.9254478521  MEOH      2408            0.0000000000
     40249      3100  MEOH      DC1           -35.8339862037       34.0157154346       26.9231802240  MEOH      2408            0.0000000000
     40250      3100  MEOH      O1            -37.1654346486       33.5578862943       26.6848006312  MEOH      2408            0.0000000000
     40251      3100  MEOH      DO1           -37.1481223943       33.5611698788       26.6782184800  MEOH      2408            0.0000000000
     40252      3100  MEOH      HO1           -37.6600337375       34.2015689342       26.1538162619  MEOH      2408            0.0000000000
     40253      3100  MEOH      HO2           -37.1206317422       32.6131090018       26.4696528498  MEOH      2408            0.0000000000
     40254      3100  MEOH      H1A           -35.5547802767       33.6002697932       27.9168843531  MEOH      2408            0.0000000000
     40255      3100  MEOH      H1B           -35.7894611651       35.1200034415       26.9573952267  MEOH      2408            0.0000000000
     40256      3100  MEOH      H1C           -35.1445067501       33.6273607360       26.1509235310  MEOH      2408            0.0000000000
     40257      3100  MEOH      LP1A          -37.1748381795       33.3657033332       26.3924356486  MEOH      2408            0.0000000000
     40258      3100  MEOH      LP1B          -37.3770745761       33.6640949633       26.9425374343  MEOH      2408            0.0000000000
     40259      3101  MEOH      C1            -30.1390135529        2.9859869465        4.2056010275  MEOH      2409            0.0000000000
     40260      3101  MEOH      DC1           -30.1307969447        2.9850857350        4.1820639240  MEOH      2409            0.0000000000
     40261      3101  MEOH      O1            -31.3131783624        2.7683866467        4.9878598036  MEOH      2409            0.0000000000
     40262      3101  MEOH      DO1           -31.3060292014        2.7622608967        4.9802558729  MEOH      2409            0.0000000000
     40263      3101  MEOH      HO1           -32.0548314921        2.5847065540        4.3902710988  MEOH      2409            0.0000000000
     40264      3101  MEOH      HO2           -31.0607211151        2.1403630166        5.6826631270  MEOH      2409            0.0000000000
     40265      3101  MEOH      H1A           -29.3189974291        3.3360560083        4.8684329893  MEOH      2409            0.0000000000
     40266      3101  MEOH      H1B           -30.3347452352        3.7594557067        3.4324540909  MEOH      2409            0.0000000000
     40267      3101  MEOH      H1C           -29.8241968074        2.0331507204        3.7288258761  MEOH      2409            0.0000000000
     40268      3101  MEOH      LP1A          -31.3399861563        2.4296751476        5.0718589853  MEOH      2409            0.0000000000
     40269      3101  MEOH      LP1B          -31.4772131858        3.0723081118        5.0446428977  MEOH      2409            0.0000000000
     40270      3102  MEOH      C1             -7.1468608842       35.9563940070       -5.9452183725  MEOH      2410            0.0000000000
     40271      3102  MEOH      DC1            -7.1446429844       35.9622595770       -5.9399646161  MEOH      2410            0.0000000000
     40272      3102  MEOH      O1             -6.4860740005       35.6552514569       -7.1748676459  MEOH      2410            0.0000000000
     40273      3102  MEOH      DO1            -6.4872987823       35.6697734990       -7.1693742161  MEOH      2410            0.0000000000
     40274      3102  MEOH      HO1            -5.5908645432       35.3423560499       -6.9709154611  MEOH      2410            0.0000000000
     40275      3102  MEOH      HO2            -7.0849096222       35.0560745792       -7.6473959174  MEOH      2410            0.0000000000
     40276      3102  MEOH      H1A            -8.1802037742       36.3038276998       -6.1592587929  MEOH      2410            0.0000000000
     40277      3102  MEOH      H1B            -6.5946900747       36.7566967363       -5.4076833145  MEOH      2410            0.0000000000
     40278      3102  MEOH      H1C            -7.2034466225       35.0494460647       -5.3060278801  MEOH      2410            0.0000000000
     40279      3102  MEOH      LP1A           -6.5469456860       35.3226169160       -7.2651389045  MEOH      2410            0.0000000000
     40280      3102  MEOH      LP1B           -6.3238240332       35.9404993081       -7.2965582843  MEOH      2410            0.0000000000
     40281      3103  MEOH      C1             22.0296629807       -0.2131906563      -35.2087964672  MEOH      2411            0.0000000000
     40282      3103  MEOH      DC1            22.0265506801       -0.2152821599      -35.2062369458  MEOH      2411            0.0000000000
     40283      3103  MEOH      O1             20.8728865995        0.4830164292      -35.6838166915  MEOH      2411            0.0000000000
     40284      3103  MEOH      DO1            20.8671350888        0.4771649734      -35.6877344014  MEOH      2411            0.0000000000
     40285      3103  MEOH      HO1            20.3600084363        0.7446522797      -34.9031742179  MEOH      2411            0.0000000000
     40286      3103  MEOH      HO2            21.2130964279        1.1765541972      -36.2704704547  MEOH      2411            0.0000000000
     40287      3103  MEOH      H1A            22.6716490588       -0.5052406129      -36.0672146045  MEOH      2411            0.0000000000
     40288      3103  MEOH      H1B            21.7271923920       -1.1268305471      -34.6537336833  MEOH      2411            0.0000000000
     40289      3103  MEOH      H1C            22.6202467771        0.4442500491      -34.5355182938  MEOH      2411            0.0000000000
     40290      3103  MEOH      LP1A           20.9432448892        0.8244062667      -35.7154819710  MEOH      2411            0.0000000000
     40291      3103  MEOH      LP1B           20.6125457960        0.2565497558      -35.7424299312  MEOH      2411            0.0000000000
     40292      3104  MEOH      C1             35.9711179570      -15.9843653129       -3.4561495811  MEOH      2412            0.0000000000
     40293      3104  MEOH      DC1            35.9755120767      -15.9980150815       -3.4639093266  MEOH      2412            0.0000000000
     40294      3104  MEOH      O1             36.1779238031      -14.6684861428       -2.9480876941  MEOH      2412            0.0000000000
     40295      3104  MEOH      DO1            36.1790623306      -14.6838450118       -2.9500041313  MEOH      2412            0.0000000000
     40296      3104  MEOH      HO1            36.6837383358      -14.1411653502       -3.5860410155  MEOH      2412            0.0000000000
     40297      3104  MEOH      HO2            35.3113480058      -14.3603316748       -2.6398877396  MEOH      2412            0.0000000000
     40298      3104  MEOH      H1A            35.5129096137      -16.6040460642       -2.6559234377  MEOH      2412            0.0000000000
     40299      3104  MEOH      H1B            36.9410429320      -16.4340451333       -3.7583988202  MEOH      2412            0.0000000000
     40300      3104  MEOH      H1C            35.2783499074      -15.9502256982       -4.3240366228  MEOH      2412            0.0000000000
     40301      3104  MEOH      LP1A           35.9120627223      -14.4609240848       -3.0415536118  MEOH      2412            0.0000000000
     40302      3104  MEOH      LP1B           36.4727500073      -14.6578401558       -2.7597683582  MEOH      2412            0.0000000000
     40303      3105  MEOH      C1             14.5732995861      -14.3974314513       18.1424327390  MEOH      2413            0.0000000000
     40304      3105  MEOH      DC1            14.5764812184      -14.4050281984       18.1328092072  MEOH      2413            0.0000000000
     40305      3105  MEOH      O1             14.7653701040      -15.5753377273       17.3530538411  MEOH      2413            0.0000000000
     40306      3105  MEOH      DO1            14.7653934389      -15.5785515792       17.3367403217  MEOH      2413            0.0000000000
     40307      3105  MEOH      HO1            15.6155544854      -15.9447795395       17.6387096918  MEOH      2413            0.0000000000
     40308      3105  MEOH      HO2            13.9625513582      -16.1032593648       17.4860230373  MEOH      2413            0.0000000000
     40309      3105  MEOH      H1A            13.5810032257      -13.9453679986       17.9295769945  MEOH      2413            0.0000000000
     40310      3105  MEOH      H1B            15.3684678229      -13.6527366584       17.9245838409  MEOH      2413            0.0000000000
     40311      3105  MEOH      H1C            14.6094926165      -14.6600649016       19.2213371537  MEOH      2413            0.0000000000
     40312      3105  MEOH      LP1A           14.6219353772      -15.8514983353       17.5132468427  MEOH      2413            0.0000000000
     40313      3105  MEOH      LP1B           14.9309252953      -15.4943582111       17.0555075479  MEOH      2413            0.0000000000
     40314      3106  MEOH      C1              6.2558982801        2.1145226893      -34.1318685015  MEOH      2414            0.0000000000
     40315      3106  MEOH      DC1             6.2651662258        2.1084275777      -34.1202281101  MEOH      2414            0.0000000000
     40316      3106  MEOH      O1              6.8902161921        3.3576822411      -34.4427553411  MEOH      2414            0.0000000000
     40317      3106  MEOH      DO1             6.9109277374        3.3515939070      -34.4237912477  MEOH      2414            0.0000000000
     40318      3106  MEOH      HO1             7.3765920430        3.2223997034      -35.2710289476  MEOH      2414            0.0000000000
     40319      3106  MEOH      HO2             6.1655443892        4.0019960181      -34.4674643441  MEOH      2414            0.0000000000
     40320      3106  MEOH      H1A             5.5339888877        2.2637193006      -33.3006596226  MEOH      2414            0.0000000000
     40321      3106  MEOH      H1B             7.0144807579        1.3582504956      -33.8370363530  MEOH      2414            0.0000000000
     40322      3106  MEOH      H1C             5.6963580772        1.7455524468      -35.0179253408  MEOH      2414            0.0000000000
     40323      3106  MEOH      LP1A            6.6758274400        3.5566990021      -34.6349265977  MEOH      2414            0.0000000000
     40324      3106  MEOH      LP1B            7.2063317183        3.3714808211      -34.2931539599  MEOH      2414            0.0000000000
     40325      3107  MEOH      C1             -1.7481110451      -21.8726342073        9.4973464474  MEOH      2415            0.0000000000
     40326      3107  MEOH      DC1            -1.7496539777      -21.8727493251        9.4930010879  MEOH      2415            0.0000000000
     40327      3107  MEOH      O1             -2.6889571756      -22.5127194966       10.3590529416  MEOH      2415            0.0000000000
     40328      3107  MEOH      DO1            -2.6896284025      -22.4993952151       10.3612857397  MEOH      2415            0.0000000000
     40329      3107  MEOH      HO1            -2.2004911330      -23.0992392823       10.9576308114  MEOH      2415            0.0000000000
     40330      3107  MEOH      HO2            -3.2773077891      -21.8180548510       10.6939926177  MEOH      2415            0.0000000000
     40331      3107  MEOH      H1A            -2.3076506937      -21.4292855712        8.6460660172  MEOH      2415            0.0000000000
     40332      3107  MEOH      H1B            -1.0158054632      -22.6041100716        9.0936230328  MEOH      2415            0.0000000000
     40333      3107  MEOH      H1C            -1.2020759052      -21.0744962383       10.0442855742  MEOH      2415            0.0000000000
     40334      3107  MEOH      LP1A           -2.7415818585      -22.3176067310       10.6448179700  MEOH      2415            0.0000000000
     40335      3107  MEOH      LP1B           -2.8027063924      -22.8095765047       10.2126390337  MEOH      2415            0.0000000000
     40336      3108  MEOH      C1            -34.9017263531       35.9314724320      -15.8623742490  MEOH      2416            0.0000000000
     40337      3108  MEOH      DC1           -34.9057323582       35.9295913758      -15.8556190650  MEOH      2416            0.0000000000
     40338      3108  MEOH      O1            -34.9584578657       35.6358699411      -17.2603600678  MEOH      2416            0.0000000000
     40339      3108  MEOH      DO1           -34.9762543448       35.6297122338      -17.2505746263  MEOH      2416            0.0000000000
     40340      3108  MEOH      HO1           -35.1509594886       34.6948019879      -17.3953942611  MEOH      2416            0.0000000000
     40341      3108  MEOH      HO2           -35.4562701196       36.3479511642      -17.6916642430  MEOH      2416            0.0000000000
     40342      3108  MEOH      H1A           -34.3919281065       36.9078267866      -15.7169131750  MEOH      2416            0.0000000000
     40343      3108  MEOH      H1B           -34.3292502803       35.1431603705      -15.3283740239  MEOH      2416            0.0000000000
     40344      3108  MEOH      H1C           -35.9270588511       35.9970795276      -15.4396332203  MEOH      2416            0.0000000000
     40345      3108  MEOH      LP1A          -35.2842218377       35.6826457828      -17.3794812462  MEOH      2416            0.0000000000
     40346      3108  MEOH      LP1B          -34.6399321897       35.5505973209      -17.3777056002  MEOH      2416            0.0000000000
     40347      3109  MEOH      C1            -18.5009969247      -20.5084606187       -3.0688104543  MEOH      2417            0.0000000000
     40348      3109  MEOH      DC1           -18.4972836222      -20.5053652935       -3.0599885396  MEOH      2417            0.0000000000
     40349      3109  MEOH      O1            -18.9375567794      -21.3858152181       -4.1053924080  MEOH      2417            0.0000000000
     40350      3109  MEOH      DO1           -18.9310051419      -21.3847094443       -4.0965497015  MEOH      2417            0.0000000000
     40351      3109  MEOH      HO1           -18.9123000866      -22.2956423185       -3.7700168754  MEOH      2417            0.0000000000
     40352      3109  MEOH      HO2           -19.7771142858      -21.0161111416       -4.4206099347  MEOH      2417            0.0000000000
     40353      3109  MEOH      H1A           -18.5059612644      -19.4645537189       -3.4490140071  MEOH      2417            0.0000000000
     40354      3109  MEOH      H1B           -17.4672980663      -20.7687696202       -2.7557179842  MEOH      2417            0.0000000000
     40355      3109  MEOH      H1C           -19.1826315844      -20.5796368505       -2.1943797053  MEOH      2417            0.0000000000
     40356      3109  MEOH      LP1A          -19.2850698399      -21.4248109916       -4.0907635871  MEOH      2417            0.0000000000
     40357      3109  MEOH      LP1B          -18.6648064674      -21.4850805852       -4.3009778222  MEOH      2417            0.0000000000
     40358      3110  MEOH      C1              2.1944976492      -17.1173477382      -36.7063793893  MEOH      2418            0.0000000000
     40359      3110  MEOH      DC1             2.2029476459      -17.1332525294      -36.7003734268  MEOH      2418            0.0000000000
     40360      3110  MEOH      O1              2.5552208645      -16.1979339396      -35.6780355034  MEOH      2418            0.0000000000
     40361      3110  MEOH      DO1             2.5633471514      -16.2109255217      -35.6720993495  MEOH      2418            0.0000000000
     40362      3110  MEOH      HO1             2.9191242874      -16.6922643239      -34.9269617580  MEOH      2418            0.0000000000
     40363      3110  MEOH      HO2             3.0819783575      -15.5067784320      -36.1090002445  MEOH      2418            0.0000000000
     40364      3110  MEOH      H1A             1.6780543962      -16.5633525475      -37.5192119023  MEOH      2418            0.0000000000
     40365      3110  MEOH      H1B             1.5000092609      -17.8856062633      -36.3041534358  MEOH      2418            0.0000000000
     40366      3110  MEOH      H1C             3.1055271096      -17.5949008680      -37.1262476193  MEOH      2418            0.0000000000
     40367      3110  MEOH      LP1A            2.8851213076      -16.0904128156      -35.7239147531  MEOH      2418            0.0000000000
     40368      3110  MEOH      LP1B            2.2823347061      -16.1423448018      -35.4660378801  MEOH      2418            0.0000000000
     40369      3111  MEOH      C1             13.3573651103       25.9117459923       -0.3817950457  MEOH      2419            0.0000000000
     40370      3111  MEOH      DC1            13.3694716058       25.9011500971       -0.3789499930  MEOH      2419            0.0000000000
     40371      3111  MEOH      O1             12.4002498547       26.8588764385       -0.8497557837  MEOH      2419            0.0000000000
     40372      3111  MEOH      DO1            12.4060140802       26.8526178101       -0.8406067534  MEOH      2419            0.0000000000
     40373      3111  MEOH      HO1            11.6130173681       26.8088248462       -0.2852561379  MEOH      2419            0.0000000000
     40374      3111  MEOH      HO2            12.8794905064       27.6897862137       -0.9940379548  MEOH      2419            0.0000000000
     40375      3111  MEOH      H1A            14.1228378951       25.7415957064       -1.1688282703  MEOH      2419            0.0000000000
     40376      3111  MEOH      H1B            12.8564633175       24.9491117116       -0.1435648301  MEOH      2419            0.0000000000
     40377      3111  MEOH      H1C            13.8595489918       26.3196670087        0.5213842253  MEOH      2419            0.0000000000
     40378      3111  MEOH      LP1A           12.4518015425       27.1680698406       -0.6940577954  MEOH      2419            0.0000000000
     40379      3111  MEOH      LP1B           12.1951851337       26.7119496674       -1.0923686113  MEOH      2419            0.0000000000
     40380      3112  MEOH      C1            -14.8109896917       26.1395698493       25.1730327991  MEOH      2420            0.0000000000
     40381      3112  MEOH      DC1           -14.8127320507       26.1330737699       25.1796005402  MEOH      2420            0.0000000000
     40382      3112  MEOH      O1            -15.8744440260       26.1740171427       26.1279409855  MEOH      2420            0.0000000000
     40383      3112  MEOH      DO1           -15.8715180399       26.1687236502       26.1349489307  MEOH      2420            0.0000000000
     40384      3112  MEOH      HO1           -15.8356466616       27.0296257452       26.5832745818  MEOH      2420            0.0000000000
     40385      3112  MEOH      HO2           -16.6753746843       25.9175454800       25.6445856625  MEOH      2420            0.0000000000
     40386      3112  MEOH      H1A           -14.7804850400       25.1403254335       24.6883668682  MEOH      2420            0.0000000000
     40387      3112  MEOH      H1B           -13.8376649982       26.3289980072       25.6741086557  MEOH      2420            0.0000000000
     40388      3112  MEOH      H1C           -14.9751599900       26.9102989714       24.3898688726  MEOH      2420            0.0000000000
     40389      3112  MEOH      LP1A          -16.1646240406       26.3014225763       25.9794033991  MEOH      2420            0.0000000000
     40390      3112  MEOH      LP1B          -15.7655678378       26.0418360113       26.4331853534  MEOH      2420            0.0000000000
     40391      3113  MEOH      C1             27.3248164484        8.9379366334      -27.1802020887  MEOH      2421            0.0000000000
     40392      3113  MEOH      DC1            27.3175219406        8.9339863572      -27.1706076288  MEOH      2421            0.0000000000
     40393      3113  MEOH      O1             28.5628840970        9.5808678081      -26.8953558017  MEOH      2421            0.0000000000
     40394      3113  MEOH      DO1            28.5504726881        9.5809312417      -26.8882821785  MEOH      2421            0.0000000000
     40395      3113  MEOH      HO1            29.0837869323        9.5802603942      -27.7136221808  MEOH      2421            0.0000000000
     40396      3113  MEOH      HO2            28.3290931892       10.4256482804      -26.4799189642  MEOH      2421            0.0000000000
     40397      3113  MEOH      H1A            26.6895209470        8.9005404643      -26.2695308236  MEOH      2421            0.0000000000
     40398      3113  MEOH      H1B            27.5263748229        7.8991660008      -27.5188033207  MEOH      2421            0.0000000000
     40399      3113  MEOH      H1C            26.7853065384        9.4983285197      -27.9734302982  MEOH      2421            0.0000000000
     40400      3113  MEOH      LP1A           28.5341259163        9.9254254191      -26.9496974964  MEOH      2421            0.0000000000
     40401      3113  MEOH      LP1B           28.7964769857        9.3460425340      -26.7822564959  MEOH      2421            0.0000000000
     40402      3114  MEOH      C1             16.7725539733       -4.5261247160      -30.2132171695  MEOH      2422            0.0000000000
     40403      3114  MEOH      DC1            16.7700503182       -4.5350879844      -30.2007591745  MEOH      2422            0.0000000000
     40404      3114  MEOH      O1             17.2131958071       -5.6920289690      -30.9134801745  MEOH      2422            0.0000000000
     40405      3114  MEOH      DO1            17.2009917881       -5.6997142915      -30.9131503714  MEOH      2422            0.0000000000
     40406      3114  MEOH      HO1            17.4898871950       -5.3932046591      -31.7938470910  MEOH      2422            0.0000000000
     40407      3114  MEOH      HO2            17.8596463629       -6.1190977421      -30.3298587711  MEOH      2422            0.0000000000
     40408      3114  MEOH      H1A            16.5075872038       -4.7981150522      -29.1691219298  MEOH      2422            0.0000000000
     40409      3114  MEOH      H1B            15.8877450957       -4.0792095178      -30.7149153417  MEOH      2422            0.0000000000
     40410      3114  MEOH      H1C            17.5965481100       -3.7814271573      -30.1852849534  MEOH      2422            0.0000000000
     40411      3114  MEOH      LP1A           17.5542473312       -5.7448870333      -30.8552574731  MEOH      2422            0.0000000000
     40412      3114  MEOH      LP1B           16.9435608801       -5.8408478952      -31.0797628655  MEOH      2422            0.0000000000
     40413      3115  MEOH      C1             13.5164632179       36.7430632923       24.6843918731  MEOH      2423            0.0000000000
     40414      3115  MEOH      DC1            13.4976880492       36.7563891276       24.6817960952  MEOH      2423            0.0000000000
     40415      3115  MEOH      O1             13.3410671489       35.4283561049       24.1692119565  MEOH      2423            0.0000000000
     40416      3115  MEOH      DO1            13.3308383528       35.4342183797       24.1715728240  MEOH      2423            0.0000000000
     40417      3115  MEOH      HO1            14.1748625410       35.1924758533       23.7332695847  MEOH      2423            0.0000000000
     40418      3115  MEOH      HO2            13.0254176306       34.9000120694       24.9189572210  MEOH      2423            0.0000000000
     40419      3115  MEOH      H1A            12.6249193743       36.9806699956       25.3032728244  MEOH      2423            0.0000000000
     40420      3115  MEOH      H1B            13.6228305107       37.4729613932       23.8535755504  MEOH      2423            0.0000000000
     40421      3115  MEOH      H1C            14.4041901327       36.7979406201       25.3501624069  MEOH      2423            0.0000000000
     40422      3115  MEOH      LP1A           13.4330947088       35.1920095256       24.4103990678  MEOH      2423            0.0000000000
     40423      3115  MEOH      LP1B           13.2088290024       35.4432901689       23.8454990492  MEOH      2423            0.0000000000
     40424      3116  MEOH      C1            -21.0472691739        5.2677055606      -32.3762589406  MEOH      2424            0.0000000000
     40425      3116  MEOH      DC1           -21.0603552020        5.2708365703      -32.3565164847  MEOH      2424            0.0000000000
     40426      3116  MEOH      O1            -22.2900280907        5.0063875700      -33.0243502684  MEOH      2424            0.0000000000
     40427      3116  MEOH      DO1           -22.2991838874        5.0131426552      -33.0114559123  MEOH      2424            0.0000000000
     40428      3116  MEOH      HO1           -22.2082334569        4.1426306664      -33.4580940289  MEOH      2424            0.0000000000
     40429      3116  MEOH      HO2           -22.4786381699        5.7806562165      -33.5773731441  MEOH      2424            0.0000000000
     40430      3116  MEOH      H1A           -20.5681082103        6.1691934456      -32.8144887494  MEOH      2424            0.0000000000
     40431      3116  MEOH      H1B           -20.3598285298        4.4057640513      -32.5133836855  MEOH      2424            0.0000000000
     40432      3116  MEOH      H1C           -21.2306485032        5.4467177577      -31.2952188604  MEOH      2424            0.0000000000
     40433      3116  MEOH      LP1A          -22.5074380779        4.8422333253      -32.8046088718  MEOH      2424            0.0000000000
     40434      3116  MEOH      LP1B          -22.2853828672        5.1367078099      -33.3491502945  MEOH      2424            0.0000000000
     40435      3117  MEOH      C1            -18.0652322650      -14.4216667148      -36.8792296497  MEOH      2425            0.0000000000
     40436      3117  MEOH      DC1           -18.0562631811      -14.4262400396      -36.8793340067  MEOH      2425            0.0000000000
     40437      3117  MEOH      O1            -18.1484296765      -14.4305543421      -35.4814908560  MEOH      2425            0.0000000000
     40438      3117  MEOH      DO1           -18.1322198948      -14.4154498443      -35.4786884914  MEOH      2425            0.0000000000
     40439      3117  MEOH      HO1           -19.0809716443      -14.2349072504      -35.2998657095  MEOH      2425            0.0000000000
     40440      3117  MEOH      HO2           -17.8358938731      -15.3108930533      -35.2202914563  MEOH      2425            0.0000000000
     40441      3117  MEOH      H1A           -17.0705397322      -14.7705193077      -37.2302419511  MEOH      2425            0.0000000000
     40442      3117  MEOH      H1B           -18.2845360376      -13.3956223015      -37.2445510396  MEOH      2425            0.0000000000
     40443      3117  MEOH      H1C           -18.8547318095      -15.1075261163      -37.2542074497  MEOH      2425            0.0000000000
     40444      3117  MEOH      LP1A          -18.2185917581      -14.7540544201      -35.3678027658  MEOH      2425            0.0000000000
     40445      3117  MEOH      LP1B          -18.0812865185      -14.1109789827      -35.3555409216  MEOH      2425            0.0000000000
     40446      3118  MEOH      C1              7.4127738262       11.5503217826      -17.0984420009  MEOH      2426            0.0000000000
     40447      3118  MEOH      DC1             7.4126193109       11.5267256063      -17.1089259067  MEOH      2426            0.0000000000
     40448      3118  MEOH      O1              7.5154840814       10.2050098888      -17.5686440695  MEOH      2426            0.0000000000
     40449      3118  MEOH      DO1             7.5071345106       10.1897447901      -17.5787094665  MEOH      2426            0.0000000000
     40450      3118  MEOH      HO1             7.5021506302       10.2594622177      -18.5370226953  MEOH      2426            0.0000000000
     40451      3118  MEOH      HO2             8.2887902340        9.8295579685      -17.1192740099  MEOH      2426            0.0000000000
     40452      3118  MEOH      H1A             7.4319198143       11.5705568283      -15.9877913014  MEOH      2426            0.0000000000
     40453      3118  MEOH      H1B             6.4628467615       12.0094120215      -17.4465737647  MEOH      2426            0.0000000000
     40454      3118  MEOH      H1C             8.2642707114       12.1540669404      -17.4789230634  MEOH      2426            0.0000000000
     40455      3118  MEOH      LP1A            7.8520806855       10.1165099805      -17.6056642312  MEOH      2426            0.0000000000
     40456      3118  MEOH      LP1B            7.1964976474       10.0643289308      -17.5995717746  MEOH      2426            0.0000000000
     40457      3119  MEOH      C1             16.9769402275        2.7756576321       21.6447968618  MEOH      2427            0.0000000000
     40458      3119  MEOH      DC1            16.9800159819        2.7754812075       21.6262799765  MEOH      2427            0.0000000000
     40459      3119  MEOH      O1             17.9015674744        2.6615946066       20.5608589404  MEOH      2427            0.0000000000
     40460      3119  MEOH      DO1            17.8963578142        2.6647729667       20.5425261776  MEOH      2427            0.0000000000
     40461      3119  MEOH      HO1            18.7408013517        2.3809330411       20.9581190388  MEOH      2427            0.0000000000
     40462      3119  MEOH      HO2            17.4663596647        2.1098312701       19.8922399287  MEOH      2427            0.0000000000
     40463      3119  MEOH      H1A            15.9851125529        3.1132826088       21.2751913436  MEOH      2427            0.0000000000
     40464      3119  MEOH      H1B            17.3417342224        3.5043683585       22.3999306382  MEOH      2427            0.0000000000
     40465      3119  MEOH      H1C            16.8576806914        1.7873510672       22.1381003156  MEOH      2427            0.0000000000
     40466      3119  MEOH      LP1A           17.8887381467        2.3388617361       20.4260297794  MEOH      2427            0.0000000000
     40467      3119  MEOH      LP1B           18.0610559339        2.9684140748       20.5067734041  MEOH      2427            0.0000000000
     40468      3120  MEOH      C1            -29.9590075407       -1.8883280082       16.3188616152  MEOH      2428            0.0000000000
     40469      3120  MEOH      DC1           -29.9728648205       -1.8935852947       16.3137145314  MEOH      2428            0.0000000000
     40470      3120  MEOH      O1            -30.0364236675       -0.5346958721       16.7601668726  MEOH      2428            0.0000000000
     40471      3120  MEOH      DO1           -30.0647639075       -0.5428234219       16.7506883667  MEOH      2428            0.0000000000
     40472      3120  MEOH      HO1           -29.6915123215        0.0636558882       16.0790565038  MEOH      2428            0.0000000000
     40473      3120  MEOH      HO2           -30.8836154254       -0.4200918273       17.2184593981  MEOH      2428            0.0000000000
     40474      3120  MEOH      H1A           -29.9192865713       -2.5490954101       17.2111226114  MEOH      2428            0.0000000000
     40475      3120  MEOH      H1B           -29.0365072437       -2.0468927117       15.7203873568  MEOH      2428            0.0000000000
     40476      3120  MEOH      H1C           -30.8492678126       -2.1647064314       15.7144010161  MEOH      2428            0.0000000000
     40477      3120  MEOH      LP1A          -30.3461266512       -0.3975614858       16.6719726438  MEOH      2428            0.0000000000
     40478      3120  MEOH      LP1B          -29.7443075414       -0.4480411490       16.9323851290  MEOH      2428            0.0000000000
     40479      3121  MEOH      C1             -8.2078314557       10.2510923667      -29.9024377573  MEOH      2429            0.0000000000
     40480      3121  MEOH      DC1            -8.2001963507       10.2673860598      -29.9220593979  MEOH      2429            0.0000000000
     40481      3121  MEOH      O1             -6.8051887920       10.1646558091      -30.1684085844  MEOH      2429            0.0000000000
     40482      3121  MEOH      DO1            -6.7940022569       10.1811221347      -30.1771243768  MEOH      2429            0.0000000000
     40483      3121  MEOH      HO1            -6.3827848501       10.2115290012      -29.2964694732  MEOH      2429            0.0000000000
     40484      3121  MEOH      HO2            -6.6967713194        9.3524507863      -30.6875122870  MEOH      2429            0.0000000000
     40485      3121  MEOH      H1A            -8.7833306866       10.1516946529      -30.8475524225  MEOH      2429            0.0000000000
     40486      3121  MEOH      H1B            -8.4539029755       11.2206137964      -29.4189111247  MEOH      2429            0.0000000000
     40487      3121  MEOH      H1C            -8.5077005488        9.4337952815      -29.2122022878  MEOH      2429            0.0000000000
     40488      3121  MEOH      LP1A           -6.7043094761        9.8295207537      -30.1712118503  MEOH      2429            0.0000000000
     40489      3121  MEOH      LP1B           -6.6734546243       10.4845634799      -30.2213726403  MEOH      2429            0.0000000000
     40490      3122  MEOH      C1            -24.4141004194        5.6029949903      -29.1541610339  MEOH      2430            0.0000000000
     40491      3122  MEOH      DC1           -24.4240817343        5.6142708995      -29.1437717657  MEOH      2430            0.0000000000
     40492      3122  MEOH      O1            -23.5646294296        4.4743630003      -28.9250408847  MEOH      2430            0.0000000000
     40493      3122  MEOH      DO1           -23.5794348854        4.4753240491      -28.9225295280  MEOH      2430            0.0000000000
     40494      3122  MEOH      HO1           -22.7233879401        4.7803160798      -28.5514027303  MEOH      2430            0.0000000000
     40495      3122  MEOH      HO2           -24.1032260965        3.8130308124      -28.4630307465  MEOH      2430            0.0000000000
     40496      3122  MEOH      H1A           -25.3085647034        5.2793838322      -29.7282084736  MEOH      2430            0.0000000000
     40497      3122  MEOH      H1B           -23.8707194831        6.3690316457      -29.7476641954  MEOH      2430            0.0000000000
     40498      3122  MEOH      H1C           -24.7531504875        6.0305514006      -28.1863999228  MEOH      2430            0.0000000000
     40499      3122  MEOH      LP1A          -23.6209748346        4.3452114625      -28.6046581829  MEOH      2430            0.0000000000
     40500      3122  MEOH      LP1B          -23.3743422418        4.4077218422      -29.2111348241  MEOH      2430            0.0000000000
     40501      3123  MEOH      C1            -11.2277490181      -26.5528119053        8.0882966797  MEOH      2431            0.0000000000
     40502      3123  MEOH      DC1           -11.2282328063      -26.5566008186        8.0865149398  MEOH      2431            0.0000000000
     40503      3123  MEOH      O1            -11.3761759058      -26.6301792734        9.5014043995  MEOH      2431            0.0000000000
     40504      3123  MEOH      DO1           -11.3729700427      -26.6386775415        9.5076385315  MEOH      2431            0.0000000000
     40505      3123  MEOH      HO1           -12.3253808388      -26.7137954462        9.6828384988  MEOH      2431            0.0000000000
     40506      3123  MEOH      HO2           -10.7403422212      -27.2952430359        9.8084967592  MEOH      2431            0.0000000000
     40507      3123  MEOH      H1A           -10.1675161883      -26.3293334697        7.8427671795  MEOH      2431            0.0000000000
     40508      3123  MEOH      H1B           -11.8718036550      -25.7467278750        7.6762976967  MEOH      2431            0.0000000000
     40509      3123  MEOH      H1C           -11.5218027185      -27.5257729813        7.6397432643  MEOH      2431            0.0000000000
     40510      3123  MEOH      LP1A          -11.3570309883      -26.9637305609        9.6056973077  MEOH      2431            0.0000000000
     40511      3123  MEOH      LP1B          -11.4089119637      -26.3088009286        9.6361052162  MEOH      2431            0.0000000000
     40512      3124  MEOH      C1            -33.5080291934       21.2213997345      -18.8434861863  MEOH      2432            0.0000000000
     40513      3124  MEOH      DC1           -33.5045970221       21.2237410860      -18.8590641412  MEOH      2432            0.0000000000
     40514      3124  MEOH      O1            -34.6732257727       20.6902983168      -18.2088508684  MEOH      2432            0.0000000000
     40515      3124  MEOH      DO1           -34.6754140966       20.6931599785      -18.2178607128  MEOH      2432            0.0000000000
     40516      3124  MEOH      HO1           -34.6834998103       19.7368589827      -18.3870302172  MEOH      2432            0.0000000000
     40517      3124  MEOH      HO2           -34.6334802979       20.9996342855      -17.2903566898  MEOH      2432            0.0000000000
     40518      3124  MEOH      H1A           -33.4477535776       22.3156751360      -18.6611425632  MEOH      2432            0.0000000000
     40519      3124  MEOH      H1B           -33.5536033464       21.0342587092      -19.9376626955  MEOH      2432            0.0000000000
     40520      3124  MEOH      H1C           -32.6042508097       20.7351321362      -18.4179871165  MEOH      2432            0.0000000000
     40521      3124  MEOH      LP1A          -34.5986275163       20.5979456660      -17.8796000704  MEOH      2432            0.0000000000
     40522      3124  MEOH      LP1B          -34.9457520126       20.7041760089      -18.4280239923  MEOH      2432            0.0000000000
     40523      3125  MEOH      C1             -4.3218514026      -11.8400357039        8.6187515774  MEOH      2433            0.0000000000
     40524      3125  MEOH      DC1            -4.3302350343      -11.8434930746        8.6161257676  MEOH      2433            0.0000000000
     40525      3125  MEOH      O1             -5.2375979613      -12.8946956093        8.2994876640  MEOH      2433            0.0000000000
     40526      3125  MEOH      DO1            -5.2371736232      -12.9003142803        8.3075515470  MEOH      2433            0.0000000000
     40527      3125  MEOH      HO1            -5.3784955640      -12.9050826903        7.3398314891  MEOH      2433            0.0000000000
     40528      3125  MEOH      HO2            -4.9380806358      -13.6823571100        8.7798820155  MEOH      2433            0.0000000000
     40529      3125  MEOH      H1A            -4.2278195251      -11.7401420187        9.7212488600  MEOH      2433            0.0000000000
     40530      3125  MEOH      H1B            -4.6842438391      -10.8710383555        8.2137369348  MEOH      2433            0.0000000000
     40531      3125  MEOH      H1C            -3.3143982358      -12.0672650603        8.2092080048  MEOH      2433            0.0000000000
     40532      3125  MEOH      LP1A           -5.0624237946      -13.1925099398        8.2436250121  MEOH      2433            0.0000000000
     40533      3125  MEOH      LP1B           -5.5665198884      -12.7758497708        8.3131270379  MEOH      2433            0.0000000000
     40534      3126  MEOH      C1             13.0532734012      -32.5816963000       23.0939239361  MEOH      2434            0.0000000000
     40535      3126  MEOH      DC1            13.0223202697      -32.5686807250       23.0909570714  MEOH      2434            0.0000000000
     40536      3126  MEOH      O1             14.1691744723      -33.4704368954       23.1024274287  MEOH      2434            0.0000000000
     40537      3126  MEOH      DO1            14.1457201808      -33.4680261927       23.1010304663  MEOH      2434            0.0000000000
     40538      3126  MEOH      HO1            14.6813631724      -33.3193396235       23.9122004524  MEOH      2434            0.0000000000
     40539      3126  MEOH      HO2            13.8202062347      -34.3499629514       22.8889910496  MEOH      2434            0.0000000000
     40540      3126  MEOH      H1A            12.5421052946      -32.6617801877       22.1107582638  MEOH      2434            0.0000000000
     40541      3126  MEOH      H1B            13.3981729654      -31.5358273068       23.2406322867  MEOH      2434            0.0000000000
     40542      3126  MEOH      H1C            12.3517367047      -32.8623394129       23.9084217609  MEOH      2434            0.0000000000
     40543      3126  MEOH      LP1A           14.0802329331      -33.7728075250       23.2546161438  MEOH      2434            0.0000000000
     40544      3126  MEOH      LP1B           14.4420319254      -33.3215286040       22.9415699419  MEOH      2434            0.0000000000
     40545      3127  MEOH      C1            -34.6640603065      -24.1633254358        2.7147366204  MEOH      2435            0.0000000000
     40546      3127  MEOH      DC1           -34.6542938754      -24.1513560411        2.7135902524  MEOH      2435            0.0000000000
     40547      3127  MEOH      O1            -33.5989240176      -23.8181343825        3.6021023309  MEOH      2435            0.0000000000
     40548      3127  MEOH      DO1           -33.5910181540      -23.8096230954        3.6080888131  MEOH      2435            0.0000000000
     40549      3127  MEOH      HO1           -32.9903248292      -23.2546601807        3.0991074484  MEOH      2435            0.0000000000
     40550      3127  MEOH      HO2           -34.0180609962      -23.4956938756        4.4152790116  MEOH      2435            0.0000000000
     40551      3127  MEOH      H1A           -35.3489336367      -24.8854020741        3.2085734861  MEOH      2435            0.0000000000
     40552      3127  MEOH      H1B           -34.2525486852      -24.6251189760        1.7918466416  MEOH      2435            0.0000000000
     40553      3127  MEOH      H1C           -35.2436993482      -23.2551177388        2.4436308090  MEOH      2435            0.0000000000
     40554      3127  MEOH      LP1A          -33.6789777446      -23.5258630848        3.7772276841  MEOH      2435            0.0000000000
     40555      3127  MEOH      LP1B          -33.3453380695      -24.0586905168        3.5840215901  MEOH      2435            0.0000000000
     40556      3128  MEOH      C1             -6.0045172407       32.3468979635       26.2275670772  MEOH      2436            0.0000000000
     40557      3128  MEOH      DC1            -6.0040558320       32.3478919419       26.2387118736  MEOH      2436            0.0000000000
     40558      3128  MEOH      O1             -5.4984921434       33.6534709038       26.4963360749  MEOH      2436            0.0000000000
     40559      3128  MEOH      DO1            -5.4944280362       33.6545240785       26.5055460895  MEOH      2436            0.0000000000
     40560      3128  MEOH      HO1            -6.2461335186       34.2697197357       26.4497554867  MEOH      2436            0.0000000000
     40561      3128  MEOH      HO2            -4.9419457603       33.5841317825       27.2877577136  MEOH      2436            0.0000000000
     40562      3128  MEOH      H1A            -5.1517211525       31.6528833043       26.0681823658  MEOH      2436            0.0000000000
     40563      3128  MEOH      H1B            -6.6189341055       32.3540989071       25.3019531926  MEOH      2436            0.0000000000
     40564      3128  MEOH      H1C            -6.6153330965       31.9896097957       27.0840541789  MEOH      2436            0.0000000000
     40565      3128  MEOH      LP1A           -5.5071645039       33.7167535093       26.8404582945  MEOH      2436            0.0000000000
     40566      3128  MEOH      LP1B           -5.3943515970       33.8051012494       26.1985727714  MEOH      2436            0.0000000000
     40567      3129  MEOH      C1            -25.9883093004        8.9940883455      -20.0011420934  MEOH      2437            0.0000000000
     40568      3129  MEOH      DC1           -25.9880484864        8.9697823280      -20.0150950358  MEOH      2437            0.0000000000
     40569      3129  MEOH      O1            -24.8562139910        9.8570950721      -19.8313650161  MEOH      2437            0.0000000000
     40570      3129  MEOH      DO1           -24.8409823202        9.8140858788      -19.8143065957  MEOH      2437            0.0000000000
     40571      3129  MEOH      HO1           -24.5700520366       10.1820657146      -20.6993543124  MEOH      2437            0.0000000000
     40572      3129  MEOH      HO2           -25.1936232087       10.5512662949      -19.2438436690  MEOH      2437            0.0000000000
     40573      3129  MEOH      H1A           -26.5848455029        8.9830953805      -19.0639416260  MEOH      2437            0.0000000000
     40574      3129  MEOH      H1B           -25.6618556569        7.9549732369      -20.2202055781  MEOH      2437            0.0000000000
     40575      3129  MEOH      H1C           -26.6364477754        9.3784085327      -20.8175583543  MEOH      2437            0.0000000000
     40576      3129  MEOH      LP1A          -24.9632718767       10.1865269233      -19.7812325466  MEOH      2437            0.0000000000
     40577      3129  MEOH      LP1B          -24.5605266634        9.6701185277      -19.8417945962  MEOH      2437            0.0000000000
     40578      3130  MEOH      C1             -1.4050406872      -35.1843356945       12.1772157203  MEOH      2438            0.0000000000
     40579      3130  MEOH      DC1            -1.3962666553      -35.1955428747       12.1838072760  MEOH      2438            0.0000000000
     40580      3130  MEOH      O1             -0.2785941551      -35.3835277057       13.0289081237  MEOH      2438            0.0000000000
     40581      3130  MEOH      DO1            -0.2723215015      -35.3732255349       13.0372128575  MEOH      2438            0.0000000000
     40582      3130  MEOH      HO1            -0.6058100522      -35.8791225649       13.7958602038  MEOH      2438            0.0000000000
     40583      3130  MEOH      HO2             0.4064104549      -35.7684910034       12.4601621842  MEOH      2438            0.0000000000
     40584      3130  MEOH      H1A            -1.1094869011      -34.6246069989       11.2641589056  MEOH      2438            0.0000000000
     40585      3130  MEOH      H1B            -2.1933549631      -34.5997742153       12.6979550806  MEOH      2438            0.0000000000
     40586      3130  MEOH      H1C            -1.8305961422      -36.1663383544       11.8790641964  MEOH      2438            0.0000000000
     40587      3130  MEOH      LP1A           -0.1140914791      -35.6801070975       12.9424238249  MEOH      2438            0.0000000000
     40588      3130  MEOH      LP1B           -0.2473515309      -35.1147452801       13.2508989031  MEOH      2438            0.0000000000
     40589      3131  MEOH      C1              8.5465417283       36.7619050896       -0.2802273848  MEOH      2439            0.0000000000
     40590      3131  MEOH      DC1             8.5475101329       36.7611685431       -0.2861851326  MEOH      2439            0.0000000000
     40591      3131  MEOH      O1              7.8520361607       36.1670352537       -1.3802806258  MEOH      2439            0.0000000000
     40592      3131  MEOH      DO1             7.8616306042       36.1649759529       -1.3921211656  MEOH      2439            0.0000000000
     40593      3131  MEOH      HO1             8.4604707548       35.5358831662       -1.7954364847  MEOH      2439            0.0000000000
     40594      3131  MEOH      HO2             7.0263582074       35.8293225372       -0.9993527585  MEOH      2439            0.0000000000
     40595      3131  MEOH      H1A             7.9046563135       37.5316308843        0.1991746559  MEOH      2439            0.0000000000
     40596      3131  MEOH      H1B             9.4837722706       37.2474610708       -0.6268616303  MEOH      2439            0.0000000000
     40597      3131  MEOH      H1C             8.8231619599       35.9882491421        0.4676086415  MEOH      2439            0.0000000000
     40598      3131  MEOH      LP1A            7.6783310417       35.8828927991       -1.2726256345  MEOH      2439            0.0000000000
     40599      3131  MEOH      LP1B            7.9002474252       36.3579609856       -1.6696299629  MEOH      2439            0.0000000000
     40600      3132  MEOH      C1            -25.7766411950      -28.4049384105      -24.2556249950  MEOH      2440            0.0000000000
     40601      3132  MEOH      DC1           -25.7671465754      -28.4001367414      -24.2534337690  MEOH      2440            0.0000000000
     40602      3132  MEOH      O1            -27.0194717645      -28.8195342218      -23.6951270604  MEOH      2440            0.0000000000
     40603      3132  MEOH      DO1           -27.0028847999      -28.8130599334      -23.6922193962  MEOH      2440            0.0000000000
     40604      3132  MEOH      HO1           -27.7316277825      -28.5759579380      -24.3070129974  MEOH      2440            0.0000000000
     40605      3132  MEOH      HO2           -26.8999406152      -29.7473560487      -23.4386919556  MEOH      2440            0.0000000000
     40606      3132  MEOH      H1A           -24.9623950903      -28.5629805818      -23.5164721329  MEOH      2440            0.0000000000
     40607      3132  MEOH      H1B           -25.8246841995      -27.3288116270      -24.5275882565  MEOH      2440            0.0000000000
     40608      3132  MEOH      H1C           -25.5599030307      -29.0014792602      -25.1674827601  MEOH      2440            0.0000000000
     40609      3132  MEOH      LP1A          -27.0917027369      -29.1475453036      -23.7935720545  MEOH      2440            0.0000000000
     40610      3132  MEOH      LP1B          -27.1505242740      -28.5653450136      -23.4933522201  MEOH      2440            0.0000000000
     40611      3133  MEOH      C1            -28.1034093286       -2.7785003931       21.8001244862  MEOH      2441            0.0000000000
     40612      3133  MEOH      DC1           -28.1091058346       -2.7907406362       21.8030981066  MEOH      2441            0.0000000000
     40613      3133  MEOH      O1            -27.6786083565       -3.8859368696       21.0125013022  MEOH      2441            0.0000000000
     40614      3133  MEOH      DO1           -27.6855553541       -3.8974974710       21.0128828420  MEOH      2441            0.0000000000
     40615      3133  MEOH      HO1           -26.7740024857       -4.0958356619       21.2927346268  MEOH      2441            0.0000000000
     40616      3133  MEOH      HO2           -28.3959452090       -4.5374949495       21.0549266322  MEOH      2441            0.0000000000
     40617      3133  MEOH      H1A           -28.9686574564       -2.2906346574       21.3024763141  MEOH      2441            0.0000000000
     40618      3133  MEOH      H1B           -27.2846980663       -2.0330027315       21.8910426149  MEOH      2441            0.0000000000
     40619      3133  MEOH      H1C           -28.3921863263       -3.1003952556       22.8235073779  MEOH      2441            0.0000000000
     40620      3133  MEOH      LP1A          -27.7661888355       -4.1857533810       21.1704244456  MEOH      2441            0.0000000000
     40621      3133  MEOH      LP1B          -27.5297473224       -3.7724162420       20.7167759911  MEOH      2441            0.0000000000
     40622      3134  MEOH      C1              7.6074449187      -34.3903790057       23.1302071644  MEOH      2442            0.0000000000
     40623      3134  MEOH      DC1             7.6113981037      -34.3909857326       23.1318681632  MEOH      2442            0.0000000000
     40624      3134  MEOH      O1              6.3308601230      -33.8069417656       23.3436516392  MEOH      2442            0.0000000000
     40625      3134  MEOH      DO1             6.3326460962      -33.8122109405       23.3503915441  MEOH      2442            0.0000000000
     40626      3134  MEOH      HO1             6.3249696135      -32.9548253551       22.8802264285  MEOH      2442            0.0000000000
     40627      3134  MEOH      HO2             5.6871980528      -34.4929719638       23.1070893712  MEOH      2442            0.0000000000
     40628      3134  MEOH      H1A             7.6949443357      -35.3333258617       23.7111685057  MEOH      2442            0.0000000000
     40629      3134  MEOH      H1B             8.4012885747      -33.6867184102       23.4603510978  MEOH      2442            0.0000000000
     40630      3134  MEOH      H1C             7.7370532768      -34.6168948792       22.0502936343  MEOH      2442            0.0000000000
     40631      3134  MEOH      LP1A            6.1086571355      -33.9104409367       23.0938241909  MEOH      2442            0.0000000000
     40632      3134  MEOH      LP1B            6.3346779622      -33.6141540003       23.6357446066  MEOH      2442            0.0000000000
     40633      3135  MEOH      C1             -2.6403975827      -20.0436677532       29.5696562559  MEOH      2443            0.0000000000
     40634      3135  MEOH      DC1            -2.6517856852      -20.0669490407       29.5708491948  MEOH      2443            0.0000000000
     40635      3135  MEOH      O1             -1.8713313688      -19.9706507954       28.3726894283  MEOH      2443            0.0000000000
     40636      3135  MEOH      DO1            -1.8921121383      -20.0008567673       28.3662751262  MEOH      2443            0.0000000000
     40637      3135  MEOH      HO1            -1.0460927936      -20.4731850599       28.4583667701  MEOH      2443            0.0000000000
     40638      3135  MEOH      HO2            -2.4648705402      -19.9475416980       27.6058274961  MEOH      2443            0.0000000000
     40639      3135  MEOH      H1A            -3.2575468595      -19.1238312554       29.6553801622  MEOH      2443            0.0000000000
     40640      3135  MEOH      H1B            -1.9740622629      -20.0953335891       30.4571521054  MEOH      2443            0.0000000000
     40641      3135  MEOH      H1C            -3.3090255361      -20.9302701692       29.5351045919  MEOH      2443            0.0000000000
     40642      3135  MEOH      LP1A           -1.9624895072      -20.2298126411       28.1558361794  MEOH      2443            0.0000000000
     40643      3135  MEOH      LP1B           -1.6590095701      -19.6926210972       28.3835954224  MEOH      2443            0.0000000000
     40644      3136  MEOH      C1            -13.9016681361        4.6509810239        5.2699020476  MEOH      2444            0.0000000000
     40645      3136  MEOH      DC1           -13.8888436266        4.6530483255        5.2616600333  MEOH      2444            0.0000000000
     40646      3136  MEOH      O1            -14.8252547400        4.3662630347        6.3164200526  MEOH      2444            0.0000000000
     40647      3136  MEOH      DO1           -14.8186533072        4.3718372585        6.3063538789  MEOH      2444            0.0000000000
     40648      3136  MEOH      HO1           -15.6512290332        4.8464738419        6.1488967778  MEOH      2444            0.0000000000
     40649      3136  MEOH      HO2           -14.8382472312        3.4010933387        6.4122253471  MEOH      2444            0.0000000000
     40650      3136  MEOH      H1A           -12.9068217149        4.2241784279        5.5197843046  MEOH      2444            0.0000000000
     40651      3136  MEOH      H1B           -13.8083229369        5.7495384864        5.1328649107  MEOH      2444            0.0000000000
     40652      3136  MEOH      H1C           -14.2688618583        4.1778567977        4.3341439391  MEOH      2444            0.0000000000
     40653      3136  MEOH      LP1A          -15.0134931615        4.0823632690        6.2360010265  MEOH      2444            0.0000000000
     40654      3136  MEOH      LP1B          -14.7844671914        4.5955072821        6.5777310759  MEOH      2444            0.0000000000
     40655      3137  MEOH      C1              1.4315057623       26.4040936553       19.2588253098  MEOH      2445            0.0000000000
     40656      3137  MEOH      DC1             1.4334079548       26.4129818776       19.2743419382  MEOH      2445            0.0000000000
     40657      3137  MEOH      O1              1.8287471669       25.3726626844       18.3597129087  MEOH      2445            0.0000000000
     40658      3137  MEOH      DO1             1.8247904694       25.3823678158       18.3696360995  MEOH      2445            0.0000000000
     40659      3137  MEOH      HO1             1.4492318061       24.5247793299       18.6389295059  MEOH      2445            0.0000000000
     40660      3137  MEOH      HO2             1.6450557282       25.7105102248       17.4691981726  MEOH      2445            0.0000000000
     40661      3137  MEOH      H1A             1.9363056493       27.3486006297       18.9631825360  MEOH      2445            0.0000000000
     40662      3137  MEOH      H1B             1.7295207865       26.1328337195       20.2941639465  MEOH      2445            0.0000000000
     40663      3137  MEOH      H1C             0.3311675429       26.5470846677       19.2028755604  MEOH      2445            0.0000000000
     40664      3137  MEOH      LP1A            1.5991392582       25.3481490027       18.0966933511  MEOH      2445            0.0000000000
     40665      3137  MEOH      LP1B            2.1310498612       25.2315151417       18.4654978422  MEOH      2445            0.0000000000
     40666      3138  MEOH      C1            -23.5623839529       28.2650959784       -7.8083945513  MEOH      2446            0.0000000000
     40667      3138  MEOH      DC1           -23.5707854277       28.2751565343       -7.8116067844  MEOH      2446            0.0000000000
     40668      3138  MEOH      O1            -22.3047185717       28.7533812031       -7.3565344581  MEOH      2446            0.0000000000
     40669      3138  MEOH      DO1           -22.3165603397       28.7593464190       -7.3568945944  MEOH      2446            0.0000000000
     40670      3138  MEOH      HO1           -21.8441838889       28.0091381652       -6.9383119011  MEOH      2446            0.0000000000
     40671      3138  MEOH      HO2           -21.9071283875       29.1903734672       -8.1258587113  MEOH      2446            0.0000000000
     40672      3138  MEOH      H1A           -24.1722119604       29.1101462040       -8.1935190995  MEOH      2446            0.0000000000
     40673      3138  MEOH      H1B           -24.1130416471       27.7760838270       -6.9765506832  MEOH      2446            0.0000000000
     40674      3138  MEOH      H1C           -23.4086132325       27.5635420039       -8.6560369209  MEOH      2446            0.0000000000
     40675      3138  MEOH      LP1A          -22.0654855468       28.7204460441       -7.6098777728  MEOH      2446            0.0000000000
     40676      3138  MEOH      LP1B          -22.3349106888       28.8789026613       -7.0312149235  MEOH      2446            0.0000000000
     40677      3139  MEOH      C1             16.5876994085      -14.4709680081      -13.1520878149  MEOH      2447            0.0000000000
     40678      3139  MEOH      DC1            16.5940867474      -14.4662962714      -13.1545484408  MEOH      2447            0.0000000000
     40679      3139  MEOH      O1             16.2504448534      -15.8139780735      -12.8061399409  MEOH      2447            0.0000000000
     40680      3139  MEOH      DO1            16.2669626497      -15.8157572041      -12.7970427745  MEOH      2447            0.0000000000
     40681      3139  MEOH      HO1            15.8194211452      -16.2014868347      -13.5839288088  MEOH      2447            0.0000000000
     40682      3139  MEOH      HO2            17.0511190025      -16.2069161424      -12.4247994347  MEOH      2447            0.0000000000
     40683      3139  MEOH      H1A            16.9158585637      -13.9255691639      -12.2414986265  MEOH      2447            0.0000000000
     40684      3139  MEOH      H1B            15.7070597421      -13.9508594195      -13.5860023616  MEOH      2447            0.0000000000
     40685      3139  MEOH      H1C            17.4256713674      -14.4799662400      -13.8815006127  MEOH      2447            0.0000000000
     40686      3139  MEOH      LP1A           16.5166254760      -16.0278415072      -12.8830184679  MEOH      2447            0.0000000000
     40687      3139  MEOH      LP1B           15.9322053066      -15.8238389170      -12.6607908625  MEOH      2447            0.0000000000
     40688      3140  MEOH      C1            -33.3505653181      -35.3702640664       29.6396525765  MEOH      2448            0.0000000000
     40689      3140  MEOH      DC1           -33.3511110656      -35.3714379999       29.6458527411  MEOH      2448            0.0000000000
     40690      3140  MEOH      O1            -33.1512128799      -36.7604210947       29.4026303496  MEOH      2448            0.0000000000
     40691      3140  MEOH      DO1           -33.1542931683      -36.7563014118       29.4082796109  MEOH      2448            0.0000000000
     40692      3140  MEOH      HO1           -33.4456298629      -36.9701681871       28.5025054700  MEOH      2448            0.0000000000
     40693      3140  MEOH      HO2           -32.2434152340      -36.9626241544       29.6781613947  MEOH      2448            0.0000000000
     40694      3140  MEOH      H1A           -33.1810896741      -35.1638182938       30.7180676863  MEOH      2448            0.0000000000
     40695      3140  MEOH      H1B           -34.3900211885      -35.0833966748       29.3721463258  MEOH      2448            0.0000000000
     40696      3140  MEOH      H1C           -32.6318966754      -34.7751202780       29.0366266620  MEOH      2448            0.0000000000
     40697      3140  MEOH      LP1A          -32.8301245600      -36.8151808821       29.2745535895  MEOH      2448            0.0000000000
     40698      3140  MEOH      LP1B          -33.4345599293      -36.9405476067       29.5014680415  MEOH      2448            0.0000000000
     40699      3141  MEOH      C1             33.6074166464      -19.0752871264      -26.0611157378  MEOH      2449            0.0000000000
     40700      3141  MEOH      DC1            33.6133869589      -19.0612255828      -26.0702445774  MEOH      2449            0.0000000000
     40701      3141  MEOH      O1             33.8100073364      -18.1310555115      -25.0178100814  MEOH      2449            0.0000000000
     40702      3141  MEOH      DO1            33.8208179435      -18.1205086229      -25.0302344687  MEOH      2449            0.0000000000
     40703      3141  MEOH      HO1            33.0954677136      -17.4767439236      -25.0648151174  MEOH      2449            0.0000000000
     40704      3141  MEOH      HO2            33.9025580540      -18.6688895005      -24.2158942717  MEOH      2449            0.0000000000
     40705      3141  MEOH      H1A            34.3667689175      -19.8811137015      -25.9697447378  MEOH      2449            0.0000000000
     40706      3141  MEOH      H1B            33.7178948623      -18.5961798453      -27.0573947033  MEOH      2449            0.0000000000
     40707      3141  MEOH      H1C            32.5962981983      -19.5267737299      -25.9710028494  MEOH      2449            0.0000000000
     40708      3141  MEOH      LP1A           33.6495768193      -18.2388207507      -24.7260075755  MEOH      2449            0.0000000000
     40709      3141  MEOH      LP1B           34.0139709235      -17.8699509398      -25.1306075004  MEOH      2449            0.0000000000
     40710      3142  MEOH      C1            -22.5590703707       31.8279421627       36.5052996332  MEOH      2450            0.0000000000
     40711      3142  MEOH      DC1           -22.5454091035       31.8227619577       36.4948807277  MEOH      2450            0.0000000000
     40712      3142  MEOH      O1            -21.9202002675       31.9718403002       35.2335185299  MEOH      2450            0.0000000000
     40713      3142  MEOH      DO1           -21.9060681227       31.9693285568       35.2225557552  MEOH      2450            0.0000000000
     40714      3142  MEOH      HO1           -22.5699306539       31.6451070116       34.5916495533  MEOH      2450            0.0000000000
     40715      3142  MEOH      HO2           -21.6346806141       32.8980260730       35.1940414192  MEOH      2450            0.0000000000
     40716      3142  MEOH      H1A           -21.8995993502       32.2077740259       37.3147109813  MEOH      2450            0.0000000000
     40717      3142  MEOH      H1B           -22.7892250247       30.7575992540       36.6942861236  MEOH      2450            0.0000000000
     40718      3142  MEOH      H1C           -23.5075245696       32.4063629163       36.5189034642  MEOH      2450            0.0000000000
     40719      3142  MEOH      LP1A          -21.9865761577       32.2890872872       35.1014254172  MEOH      2450            0.0000000000
     40720      3142  MEOH      LP1B          -21.7375928140       31.6829811888       35.1579213626  MEOH      2450            0.0000000000
     40721      3143  MEOH      C1             18.1639119396        0.5479363106       -7.2139725606  MEOH      2451            0.0000000000
     40722      3143  MEOH      DC1            18.1656845618        0.5307925655       -7.2136416947  MEOH      2451            0.0000000000
     40723      3143  MEOH      O1             17.2758477522       -0.1062486643       -6.3032224108  MEOH      2451            0.0000000000
     40724      3143  MEOH      DO1            17.2886312610       -0.1214490847       -6.3007060407  MEOH      2451            0.0000000000
     40725      3143  MEOH      HO1            17.1897149528       -1.0422772586       -6.5426626188  MEOH      2451            0.0000000000
     40726      3143  MEOH      HO2            17.5316079279        0.1783591924       -5.4118834739  MEOH      2451            0.0000000000
     40727      3143  MEOH      H1A            18.0727849398        1.6474255778       -7.0830518926  MEOH      2451            0.0000000000
     40728      3143  MEOH      H1B            17.9068169030        0.2988779652       -8.2657297017  MEOH      2451            0.0000000000
     40729      3143  MEOH      H1C            19.2186187969        0.2684751284       -7.0046500987  MEOH      2451            0.0000000000
     40730      3143  MEOH      LP1A           17.4550320711       -0.2293920274       -6.0289439174  MEOH      2451            0.0000000000
     40731      3143  MEOH      LP1B           16.9465375128       -0.0827161509       -6.4194161586  MEOH      2451            0.0000000000
     40732      3144  MEOH      C1            -11.5130189631      -33.5816307870       17.7339283249  MEOH      2452            0.0000000000
     40733      3144  MEOH      DC1           -11.5175302112      -33.5751492347       17.7196782790  MEOH      2452            0.0000000000
     40734      3144  MEOH      O1            -10.4249546647      -32.8686561037       17.1453949103  MEOH      2452            0.0000000000
     40735      3144  MEOH      DO1           -10.4238945779      -32.8716111399       17.1367075343  MEOH      2452            0.0000000000
     40736      3144  MEOH      HO1           -10.1291447352      -32.2187661325       17.8019309039  MEOH      2452            0.0000000000
     40737      3144  MEOH      HO2            -9.8125460666      -33.5485133730       16.8234480159  MEOH      2452            0.0000000000
     40738      3144  MEOH      H1A           -11.9475774919      -34.2637925322       16.9722622311  MEOH      2452            0.0000000000
     40739      3144  MEOH      H1B           -12.2940763843      -32.8730914098       18.0835599263  MEOH      2452            0.0000000000
     40740      3144  MEOH      H1C           -11.1668851027      -34.1856737807       18.5997484061  MEOH      2452            0.0000000000
     40741      3144  MEOH      LP1A          -10.1233503768      -33.0323164661       17.2143161649  MEOH      2452            0.0000000000
     40742      3144  MEOH      LP1B          -10.5451358571      -32.5917509761       16.9682508128  MEOH      2452            0.0000000000
     40743      3145  MEOH      C1             14.1470500377       -0.3800636968       20.2925270154  MEOH      2453            0.0000000000
     40744      3145  MEOH      DC1            14.1350519569       -0.3827693528       20.2943156416  MEOH      2453            0.0000000000
     40745      3145  MEOH      O1             14.9372593921        0.6904136084       20.8040070145  MEOH      2453            0.0000000000
     40746      3145  MEOH      DO1            14.9337120846        0.6862018695       20.8027146985  MEOH      2453            0.0000000000
     40747      3145  MEOH      HO1            15.4118317455        1.1000708992       20.0638300180  MEOH      2453            0.0000000000
     40748      3145  MEOH      HO2            14.3415246087        1.2281398917       21.3488469104  MEOH      2453            0.0000000000
     40749      3145  MEOH      H1A            13.6619162317       -0.9124459731       21.1384202145  MEOH      2453            0.0000000000
     40750      3145  MEOH      H1B            14.7890917123       -1.0897526969       19.7282176927  MEOH      2453            0.0000000000
     40751      3145  MEOH      H1C            13.3708021846        0.0151643248       19.6029219970  MEOH      2453            0.0000000000
     40752      3145  MEOH      LP1A           14.7507013436        0.9865416153       20.8060802027  MEOH      2453            0.0000000000
     40753      3145  MEOH      LP1B           15.2527286836        0.5718264570       20.8984327189  MEOH      2453            0.0000000000
     40754      3146  MEOH      C1            -21.3505415228        0.2939630216       36.4563127809  MEOH      2454            0.0000000000
     40755      3146  MEOH      DC1           -21.3682761132        0.2826050388       36.4601827444  MEOH      2454            0.0000000000
     40756      3146  MEOH      O1            -22.2938286223        1.3599847827       36.5585055305  MEOH      2454            0.0000000000
     40757      3146  MEOH      DO1           -22.3181593518        1.3375467827       36.5472361078  MEOH      2454            0.0000000000
     40758      3146  MEOH      HO1           -22.8250325373        1.2049076132       37.3551694951  MEOH      2454            0.0000000000
     40759      3146  MEOH      HO2           -21.7404731363        2.1556992437       36.5976999518  MEOH      2454            0.0000000000
     40760      3146  MEOH      H1A           -20.6295767177        0.5189640450       35.6415089458  MEOH      2454            0.0000000000
     40761      3146  MEOH      H1B           -21.8545205173       -0.6633347080       36.2035139875  MEOH      2454            0.0000000000
     40762      3146  MEOH      H1C           -20.8031934972        0.1653117084       37.4145298651  MEOH      2454            0.0000000000
     40763      3146  MEOH      LP1A          -22.1553261797        1.6254173169       36.7397860953  MEOH      2454            0.0000000000
     40764      3146  MEOH      LP1B          -22.5863834934        1.2780250381       36.3847406099  MEOH      2454            0.0000000000
     40765      3147  MEOH      C1              1.4044098720       23.1714267766      -24.7220261608  MEOH      2455            0.0000000000
     40766      3147  MEOH      DC1             1.4083339487       23.1850539207      -24.7236082565  MEOH      2455            0.0000000000
     40767      3147  MEOH      O1              2.5517350915       22.3710337866      -25.0070498602  MEOH      2455            0.0000000000
     40768      3147  MEOH      DO1             2.5627156202       22.3874062120      -25.0202062062  MEOH      2455            0.0000000000
     40769      3147  MEOH      HO1             2.9913501106       22.2002954627      -24.1594137003  MEOH      2455            0.0000000000
     40770      3147  MEOH      HO2             2.1966268829       21.6008494083      -25.4778090183  MEOH      2455            0.0000000000
     40771      3147  MEOH      H1A             0.7620202690       23.2417106013      -25.6257500034  MEOH      2455            0.0000000000
     40772      3147  MEOH      H1B             1.7165197413       24.1923063176      -24.4142707503  MEOH      2455            0.0000000000
     40773      3147  MEOH      H1C             0.8151664304       22.7027243775      -23.9050615179  MEOH      2455            0.0000000000
     40774      3147  MEOH      LP1A            2.4662862607       22.0317494217      -24.9978511096  MEOH      2455            0.0000000000
     40775      3147  MEOH      LP1B            2.8269317239       22.5762666409      -25.0752135534  MEOH      2455            0.0000000000
     40776      3148  MEOH      C1             12.7717750515        0.0661029228      -12.6589672891  MEOH      2456            0.0000000000
     40777      3148  MEOH      DC1            12.7753530427        0.0410299708      -12.6668163841  MEOH      2456            0.0000000000
     40778      3148  MEOH      O1             13.5838578811        1.2046654422      -12.3976373020  MEOH      2456            0.0000000000
     40779      3148  MEOH      DO1            13.5997307910        1.1747394863      -12.4077509090  MEOH      2456            0.0000000000
     40780      3148  MEOH      HO1            14.5201034733        0.9960129536      -12.5418882298  MEOH      2456            0.0000000000
     40781      3148  MEOH      HO2            13.1656760030        1.9507174060      -12.8552729487  MEOH      2456            0.0000000000
     40782      3148  MEOH      H1A            11.7199075632        0.3192646952      -12.4063709586  MEOH      2456            0.0000000000
     40783      3148  MEOH      H1B            13.1002178169       -0.7965483779      -12.0406800713  MEOH      2456            0.0000000000
     40784      3148  MEOH      H1C            12.8384099389       -0.1905104799      -13.7378696727  MEOH      2456            0.0000000000
     40785      3148  MEOH      LP1A           13.6195745167        1.3955988838      -12.6887880238  MEOH      2456            0.0000000000
     40786      3148  MEOH      LP1B           13.6754235613        1.2114168459      -12.0598945822  MEOH      2456            0.0000000000
     40787      3149  MEOH      C1             -9.0708228605        4.4276660506       32.0545172308  MEOH      2457            0.0000000000
     40788      3149  MEOH      DC1            -9.0627823391        4.4339732076       32.0580036091  MEOH      2457            0.0000000000
     40789      3149  MEOH      O1             -9.9994468791        3.6649629707       31.2853816998  MEOH      2457            0.0000000000
     40790      3149  MEOH      DO1            -9.9957760599        3.6812955752       31.2824081774  MEOH      2457            0.0000000000
     40791      3149  MEOH      HO1           -10.9050190499        3.9136058446       31.5283133062  MEOH      2457            0.0000000000
     40792      3149  MEOH      HO2            -9.6777498226        3.6790468090       30.3703884488  MEOH      2457            0.0000000000
     40793      3149  MEOH      H1A            -8.0513288865        4.0009344249       31.9411454677  MEOH      2457            0.0000000000
     40794      3149  MEOH      H1B            -9.3386051716        4.3872335787       33.1320045168  MEOH      2457            0.0000000000
     40795      3149  MEOH      H1C            -9.0780975630        5.4894324160       31.7275305877  MEOH      2457            0.0000000000
     40796      3149  MEOH      LP1A          -10.0715001206        3.8309058178       30.9857631057  MEOH      2457            0.0000000000
     40797      3149  MEOH      LP1B          -10.0745044864        3.3657258874       31.4506799864  MEOH      2457            0.0000000000
     40798      3150  MEOH      C1            -22.2418295129       34.2925002974       26.5521004922  MEOH      2458            0.0000000000
     40799      3150  MEOH      DC1           -22.2470854262       34.2996141062       26.5447797928  MEOH      2458            0.0000000000
     40800      3150  MEOH      O1            -23.1726610295       34.5272343994       25.4969377918  MEOH      2458            0.0000000000
     40801      3150  MEOH      DO1           -23.1812082090       34.5206128355       25.4988677777  MEOH      2458            0.0000000000
     40802      3150  MEOH      HO1           -23.0479053540       35.4291983778       25.1625772026  MEOH      2458            0.0000000000
     40803      3150  MEOH      HO2           -23.1196633811       33.7612096962       24.9042343219  MEOH      2458            0.0000000000
     40804      3150  MEOH      H1A           -22.4144046394       33.2841169177       26.9853461357  MEOH      2458            0.0000000000
     40805      3150  MEOH      H1B           -22.3565431365       35.0535281699       27.3533484953  MEOH      2458            0.0000000000
     40806      3150  MEOH      H1C           -21.2080839227       34.3353559668       26.1473111071  MEOH      2458            0.0000000000
     40807      3150  MEOH      LP1A          -23.0334728146       34.4303612281       25.1907642635  MEOH      2458            0.0000000000
     40808      3150  MEOH      LP1B          -23.4721998411       34.6528670844       25.6272947205  MEOH      2458            0.0000000000
     40809      3151  MEOH      C1              3.4637343152       -4.8185583500      -11.9240897991  MEOH      2459            0.0000000000
     40810      3151  MEOH      DC1             3.4639524441       -4.8238723236      -11.9207690947  MEOH      2459            0.0000000000
     40811      3151  MEOH      O1              3.7896661024       -3.4767292444      -12.2939637626  MEOH      2459            0.0000000000
     40812      3151  MEOH      DO1             3.7973250032       -3.4822153265      -12.2935454624  MEOH      2459            0.0000000000
     40813      3151  MEOH      HO1             3.1222969036       -2.8917345869      -11.9024288302  MEOH      2459            0.0000000000
     40814      3151  MEOH      HO2             4.7288075642       -3.3617017177      -12.0802303225  MEOH      2459            0.0000000000
     40815      3151  MEOH      H1A             4.1650866055       -5.5155915736      -12.4306178343  MEOH      2459            0.0000000000
     40816      3151  MEOH      H1B             2.4299376742       -5.0674451582      -12.2460228072  MEOH      2459            0.0000000000
     40817      3151  MEOH      H1C             3.5637868711       -4.9486338783      -10.8252764191  MEOH      2459            0.0000000000
     40818      3151  MEOH      LP1A            4.0062177657       -3.3365886024      -12.0573924677  MEOH      2459            0.0000000000
     40819      3151  MEOH      LP1B            3.6368313125       -3.3959639580      -12.5982966322  MEOH      2459            0.0000000000
     40820      3152  MEOH      C1              2.1267854182       -4.6596015630       10.6806042375  MEOH      2460            0.0000000000
     40821      3152  MEOH      DC1             2.1199769357       -4.6555072234       10.6765397777  MEOH      2460            0.0000000000
     40822      3152  MEOH      O1              2.2315167306       -6.0729122606       10.5226417118  MEOH      2460            0.0000000000
     40823      3152  MEOH      DO1             2.2245871770       -6.0706539751       10.5169325563  MEOH      2460            0.0000000000
     40824      3152  MEOH      HO1             2.7874821119       -6.3873231215       11.2526747969  MEOH      2460            0.0000000000
     40825      3152  MEOH      HO2             1.3225866562       -6.3961418720       10.4213069238  MEOH      2460            0.0000000000
     40826      3152  MEOH      H1A             1.5541118856       -4.2220091310        9.8350991279  MEOH      2460            0.0000000000
     40827      3152  MEOH      H1B             3.1426062300       -4.2106210386       10.7096828826  MEOH      2460            0.0000000000
     40828      3152  MEOH      H1C             1.6187454405       -4.4267973180       11.6408222151  MEOH      2460            0.0000000000
     40829      3152  MEOH      LP1A            1.9691911578       -6.2319617676       10.6911307269  MEOH      2460            0.0000000000
     40830      3152  MEOH      LP1B            2.5048182687       -6.1505950569       10.3182605667  MEOH      2460            0.0000000000
     40831      3153  MEOH      C1             18.2896972480       23.0390424490      -26.4969769401  MEOH      2461            0.0000000000
     40832      3153  MEOH      DC1            18.2925092636       23.0433248342      -26.4959758381  MEOH      2461            0.0000000000
     40833      3153  MEOH      O1             18.7730224978       21.9004969928      -25.7886195653  MEOH      2461            0.0000000000
     40834      3153  MEOH      DO1            18.7743538021       21.9041585305      -25.7901870427  MEOH      2461            0.0000000000
     40835      3153  MEOH      HO1            18.6607364776       21.1258161233      -26.3614732990  MEOH      2461            0.0000000000
     40836      3153  MEOH      HO2            19.6399019929       22.1486278137      -25.4310569311  MEOH      2461            0.0000000000
     40837      3153  MEOH      H1A            18.1808768556       23.8840357702      -25.7839093346  MEOH      2461            0.0000000000
     40838      3153  MEOH      H1B            17.2982535908       22.8309435279      -26.9531077476  MEOH      2461            0.0000000000
     40839      3153  MEOH      H1C            18.9987685761       23.3220035852      -27.3041150010  MEOH      2461            0.0000000000
     40840      3153  MEOH      LP1A           19.1148881277       21.8575087033      -25.8501004409  MEOH      2461            0.0000000000
     40841      3153  MEOH      LP1B           18.5149826277       21.7589359772      -25.5992102088  MEOH      2461            0.0000000000
     40842      3154  MEOH      C1             -1.4118681186      -11.8870792531       20.8161660697  MEOH      2462            0.0000000000
     40843      3154  MEOH      DC1            -1.4116401341      -11.9005334132       20.8179720808  MEOH      2462            0.0000000000
     40844      3154  MEOH      O1             -0.8969466966      -13.0986457640       20.2545850786  MEOH      2462            0.0000000000
     40845      3154  MEOH      DO1            -0.8973716277      -13.1226724387       20.2583377143  MEOH      2462            0.0000000000
     40846      3154  MEOH      HO1            -0.2923917136      -13.4648482289       20.9188960211  MEOH      2462            0.0000000000
     40847      3154  MEOH      HO2            -1.6624312785      -13.5892155566       19.9165397660  MEOH      2462            0.0000000000
     40848      3154  MEOH      H1A            -2.0098027188      -11.3559524559       20.0449984226  MEOH      2462            0.0000000000
     40849      3154  MEOH      H1B            -0.5718645770      -11.2269096171       21.1209464855  MEOH      2462            0.0000000000
     40850      3154  MEOH      H1C            -2.0550908398      -12.0925649352       21.6984138621  MEOH      2462            0.0000000000
     40851      3154  MEOH      LP1A           -1.1059727514      -13.3670394717       20.3368828675  MEOH      2462            0.0000000000
     40852      3154  MEOH      LP1B           -0.6080453767      -13.0311943346       20.0688801189  MEOH      2462            0.0000000000
     40853      3155  MEOH      C1             25.9963461289        8.8212933824        4.5651686191  MEOH      2463            0.0000000000
     40854      3155  MEOH      DC1            25.9944997727        8.8219150226        4.5666294513  MEOH      2463            0.0000000000
     40855      3155  MEOH      O1             24.8258021683        9.6227528055        4.6101351961  MEOH      2463            0.0000000000
     40856      3155  MEOH      DO1            24.8223596681        9.6206376323        4.6078025702  MEOH      2463            0.0000000000
     40857      3155  MEOH      HO1            24.0818794078        9.0337209799        4.8114320783  MEOH      2463            0.0000000000
     40858      3155  MEOH      HO2            25.0400028112       10.3591415106        5.2040625992  MEOH      2463            0.0000000000
     40859      3155  MEOH      H1A            26.8415755524        9.4416504427        4.1976562502  MEOH      2463            0.0000000000
     40860      3155  MEOH      H1B            25.8630587103        7.9502428809        3.8885398520  MEOH      2463            0.0000000000
     40861      3155  MEOH      H1C            26.2414898983        8.4367288394        5.5782508687  MEOH      2463            0.0000000000
     40862      3155  MEOH      LP1A           24.7771877404        9.7455603941        4.9342569843  MEOH      2463            0.0000000000
     40863      3155  MEOH      LP1B           24.6832517996        9.6444438142        4.2912168798  MEOH      2463            0.0000000000
     40864      3156  MEOH      C1             17.5415264583       20.2689788027      -19.5981357624  MEOH      2464            0.0000000000
     40865      3156  MEOH      DC1            17.5408053627       20.2770850869      -19.6041735949  MEOH      2464            0.0000000000
     40866      3156  MEOH      O1             16.6421584672       20.0176286400      -20.6749269232  MEOH      2464            0.0000000000
     40867      3156  MEOH      DO1            16.6351235949       20.0418495546      -20.6801655510  MEOH      2464            0.0000000000
     40868      3156  MEOH      HO1            15.7896370130       19.7651071612      -20.2871898031  MEOH      2464            0.0000000000
     40869      3156  MEOH      HO2            16.7455673916       20.7323974096      -21.3224701266  MEOH      2464            0.0000000000
     40870      3156  MEOH      H1A            18.5869798653       20.2382704196      -19.9728425399  MEOH      2464            0.0000000000
     40871      3156  MEOH      H1B            17.4274741156       19.4846542929      -18.8195806081  MEOH      2464            0.0000000000
     40872      3156  MEOH      H1C            17.3328948468       21.2633534039      -19.1486771950  MEOH      2464            0.0000000000
     40873      3156  MEOH      LP1A           16.4787247910       20.3134471401      -20.7659260906  MEOH      2464            0.0000000000
     40874      3156  MEOH      LP1B           16.6628286493       19.6820882989      -20.7723200600  MEOH      2464            0.0000000000
     40875      3157  MEOH      C1            -25.2728422574       -0.7087310252        7.6028539906  MEOH      2465            0.0000000000
     40876      3157  MEOH      DC1           -25.2728658791       -0.7117764843        7.5840583791  MEOH      2465            0.0000000000
     40877      3157  MEOH      O1            -25.9926419164        0.5178280797        7.4365045307  MEOH      2465            0.0000000000
     40878      3157  MEOH      DO1           -25.9940763063        0.5175472271        7.4041372933  MEOH      2465            0.0000000000
     40879      3157  MEOH      HO1           -26.5015205097        0.6330007765        8.2542317634  MEOH      2465            0.0000000000
     40880      3157  MEOH      HO2           -25.3208017354        1.1867201934        7.2312872971  MEOH      2465            0.0000000000
     40881      3157  MEOH      H1A           -24.5772800415       -0.8597653925        6.7497989955  MEOH      2465            0.0000000000
     40882      3157  MEOH      H1B           -25.9796514842       -1.5645819888        7.6504023346  MEOH      2465            0.0000000000
     40883      3157  MEOH      H1C           -24.6903533295       -0.6732907185        8.5482489535  MEOH      2465            0.0000000000
     40884      3157  MEOH      LP1A          -25.7993344729        0.7864587580        7.5503895209  MEOH      2465            0.0000000000
     40885      3157  MEOH      LP1B          -26.3016549695        0.4555991887        7.2843910923  MEOH      2465            0.0000000000
     40886      3158  MEOH      C1            -22.5769465933       24.7615095799      -32.6334433916  MEOH      2466            0.0000000000
     40887      3158  MEOH      DC1           -22.5814360077       24.7596537154      -32.6527145970  MEOH      2466            0.0000000000
     40888      3158  MEOH      O1            -21.5484504599       24.9328099903      -33.6106086034  MEOH      2466            0.0000000000
     40889      3158  MEOH      DO1           -21.5353879906       24.9250678630      -33.6196444194  MEOH      2466            0.0000000000
     40890      3158  MEOH      HO1           -20.8318574325       25.3825751973      -33.1361555581  MEOH      2466            0.0000000000
     40891      3158  MEOH      HO2           -21.4164172439       24.0620924112      -34.0172019227  MEOH      2466            0.0000000000
     40892      3158  MEOH      H1A           -23.5119262867       24.3702142236      -33.0884400056  MEOH      2466            0.0000000000
     40893      3158  MEOH      H1B           -22.7926244818       25.7310555308      -32.1356636231  MEOH      2466            0.0000000000
     40894      3158  MEOH      H1C           -22.2561817354       24.0134715830      -31.8772224840  MEOH      2466            0.0000000000
     40895      3158  MEOH      LP1A          -21.3379002359       24.6532343013      -33.6130657063  MEOH      2466            0.0000000000
     40896      3158  MEOH      LP1B          -21.5932916576       25.2359434820      -33.7797220362  MEOH      2466            0.0000000000
     40897      3159  MEOH      C1            -10.7628434012       31.6983920387        1.2468143364  MEOH      2467            0.0000000000
     40898      3159  MEOH      DC1           -10.7678197759       31.6986734721        1.2534617720  MEOH      2467            0.0000000000
     40899      3159  MEOH      O1             -9.5789030422       31.0598439257        1.7035543919  MEOH      2467            0.0000000000
     40900      3159  MEOH      DO1            -9.5909027085       31.0561749945        1.7165638527  MEOH      2467            0.0000000000
     40901      3159  MEOH      HO1            -9.1329595037       31.6575753425        2.3238378060  MEOH      2467            0.0000000000
     40902      3159  MEOH      HO2            -9.8246345307       30.1535730271        1.9468424822  MEOH      2467            0.0000000000
     40903      3159  MEOH      H1A           -11.1678472545       31.1308169097        0.3818569087  MEOH      2467            0.0000000000
     40904      3159  MEOH      H1B           -10.5382976025       32.7383775998        0.9269233878  MEOH      2467            0.0000000000
     40905      3159  MEOH      H1C           -11.5169122043       31.7064640651        2.0626795723  MEOH      2467            0.0000000000
     40906      3159  MEOH      LP1A           -9.6483934716       30.8681766113        1.9880446743  MEOH      2467            0.0000000000
     40907      3159  MEOH      LP1B           -9.3122964363       31.1347573003        1.4895242446  MEOH      2467            0.0000000000
     40908      3160  MEOH      C1              9.3060590870       32.9184145806      -29.8751547785  MEOH      2468            0.0000000000
     40909      3160  MEOH      DC1             9.3137866221       32.9189172452      -29.8726588300  MEOH      2468            0.0000000000
     40910      3160  MEOH      O1             10.7269944029       33.0532042834      -29.9291984854  MEOH      2468            0.0000000000
     40911      3160  MEOH      DO1            10.7405671655       33.0542421049      -29.9289465645  MEOH      2468            0.0000000000
     40912      3160  MEOH      HO1            10.9510296109       33.7782989636      -29.3250909362  MEOH      2468            0.0000000000
     40913      3160  MEOH      HO2            11.0837147162       32.1620265573      -29.7897249086  MEOH      2468            0.0000000000
     40914      3160  MEOH      H1A             8.9627805737       32.1558878790      -30.6066148880  MEOH      2468            0.0000000000
     40915      3160  MEOH      H1B             8.8232447408       33.8862443073      -30.1291566064  MEOH      2468            0.0000000000
     40916      3160  MEOH      H1C             8.9979444622       32.5994854613      -28.8564936006  MEOH      2468            0.0000000000
     40917      3160  MEOH      LP1A           10.8761371172       32.8451815136      -29.6904874089  MEOH      2468            0.0000000000
     40918      3160  MEOH      LP1B           10.8165549537       33.2752018813      -30.1845335089  MEOH      2468            0.0000000000
     40919      3161  MEOH      C1             -0.1763471194      -35.7925266927      -26.6819249886  MEOH      2469            0.0000000000
     40920      3161  MEOH      DC1            -0.1635634195      -35.7934602669      -26.6843894789  MEOH      2469            0.0000000000
     40921      3161  MEOH      O1              1.2063077294      -36.1570496786      -26.6801450124  MEOH      2469            0.0000000000
     40922      3161  MEOH      DO1             1.2144214937      -36.1540311078      -26.6816145014  MEOH      2469            0.0000000000
     40923      3161  MEOH      HO1             1.4726817191      -36.2398197579      -25.7511164807  MEOH      2469            0.0000000000
     40924      3161  MEOH      HO2             1.2603394658      -36.9380791215      -27.2528347895  MEOH      2469            0.0000000000
     40925      3161  MEOH      H1A            -0.5157178121      -35.6272344163      -27.7268302459  MEOH      2469            0.0000000000
     40926      3161  MEOH      H1B            -0.3247594797      -34.8563078233      -26.1024519523  MEOH      2469            0.0000000000
     40927      3161  MEOH      H1C            -0.7958766266      -36.5981759552      -26.2331116010  MEOH      2469            0.0000000000
     40928      3161  MEOH      LP1A            1.2382663725      -36.5054473461      -26.6900298721  MEOH      2469            0.0000000000
     40929      3161  MEOH      LP1B            1.4059047366      -35.8695442787      -26.6814410644  MEOH      2469            0.0000000000
     40930      3162  MEOH      C1             12.2549446339      -12.9817463663       11.3041809208  MEOH      2470            0.0000000000
     40931      3162  MEOH      DC1            12.2580049385      -12.9781341517       11.2884331963  MEOH      2470            0.0000000000
     40932      3162  MEOH      O1             11.9944505791      -12.6223790063       12.6616008182  MEOH      2470            0.0000000000
     40933      3162  MEOH      DO1            11.9823417977      -12.6141174418       12.6461897853  MEOH      2470            0.0000000000
     40934      3162  MEOH      HO1            12.0689347295      -11.6616998537       12.7731699793  MEOH      2470            0.0000000000
     40935      3162  MEOH      HO2            11.2105792371      -13.1197744825       12.9427475046  MEOH      2470            0.0000000000
     40936      3162  MEOH      H1A            12.4399263862      -14.0759303874       11.2506638222  MEOH      2470            0.0000000000
     40937      3162  MEOH      H1B            13.1548787082      -12.4526338891       10.9240761348  MEOH      2470            0.0000000000
     40938      3162  MEOH      H1C            11.3720542155      -12.7298721089       10.6785733208  MEOH      2470            0.0000000000
     40939      3162  MEOH      LP1A           11.6521573538      -12.5648674143       12.7066315266  MEOH      2470            0.0000000000
     40940      3162  MEOH      LP1B           12.2913670331      -12.6306971362       12.8467262570  MEOH      2470            0.0000000000
     40941      3163  MEOH      C1             10.5944037730        0.6226253143      -15.2075028811  MEOH      2471            0.0000000000
     40942      3163  MEOH      DC1            10.6093679162        0.6035494931      -15.2262391306  MEOH      2471            0.0000000000
     40943      3163  MEOH      O1             11.6357303511        0.6606209814      -16.1854441360  MEOH      2471            0.0000000000
     40944      3163  MEOH      DO1            11.6489230638        0.6432878363      -16.2007028069  MEOH      2471            0.0000000000
     40945      3163  MEOH      HO1            12.4478239715        0.8941086173      -15.7091170676  MEOH      2471            0.0000000000
     40946      3163  MEOH      HO2            11.5543280566       -0.1425201368      -16.7232526622  MEOH      2471            0.0000000000
     40947      3163  MEOH      H1A             9.5991169928        0.6470835949      -15.7005820020  MEOH      2471            0.0000000000
     40948      3163  MEOH      H1B            10.6849420866        1.4937151582      -14.5238901997  MEOH      2471            0.0000000000
     40949      3163  MEOH      H1C            10.6723111071       -0.2986099814      -14.5914046931  MEOH      2471            0.0000000000
     40950      3163  MEOH      LP1A           11.7800802561        0.3435433192      -16.2189830852  MEOH      2471            0.0000000000
     40951      3163  MEOH      LP1B           11.6582691872        0.9812745609      -16.3239117598  MEOH      2471            0.0000000000
     40952      3164  MEOH      C1             18.4515117782       12.0076866832       17.2179280488  MEOH      2472            0.0000000000
     40953      3164  MEOH      DC1            18.4495659290       12.0159709434       17.2073109422  MEOH      2472            0.0000000000
     40954      3164  MEOH      O1             17.0777592464       11.7435694555       17.4932735392  MEOH      2472            0.0000000000
     40955      3164  MEOH      DO1            17.0708868999       11.7557725067       17.4826866573  MEOH      2472            0.0000000000
     40956      3164  MEOH      HO1            17.0710618253       11.1820837436       18.2842153448  MEOH      2472            0.0000000000
     40957      3164  MEOH      HO2            16.6424277207       12.6103020790       17.5059630177  MEOH      2472            0.0000000000
     40958      3164  MEOH      H1A            18.5452898082       12.5957541989       16.2800030627  MEOH      2472            0.0000000000
     40959      3164  MEOH      H1B            19.0104923194       11.0561016522       17.0900699880  MEOH      2472            0.0000000000
     40960      3164  MEOH      H1C            18.9054046376       12.5886834274       18.0490387848  MEOH      2472            0.0000000000
     40961      3164  MEOH      LP1A           16.9474856217       11.9925224548       17.7019627503  MEOH      2472            0.0000000000
     40962      3164  MEOH      LP1B           16.9743144055       11.4565702100       17.3217200549  MEOH      2472            0.0000000000
     40963      3165  MEOH      C1              6.4987501060       -2.7142967272       19.6152918310  MEOH      2473            0.0000000000
     40964      3165  MEOH      DC1             6.4965690879       -2.7197666866       19.6097913099  MEOH      2473            0.0000000000
     40965      3165  MEOH      O1              7.3716666602       -3.8267929471       19.4030162209  MEOH      2473            0.0000000000
     40966      3165  MEOH      DO1             7.3671200222       -3.8364349487       19.3935672048  MEOH      2473            0.0000000000
     40967      3165  MEOH      HO1             7.9810931139       -3.5607178013       18.6968268593  MEOH      2473            0.0000000000
     40968      3165  MEOH      HO2             7.7316768400       -4.0351384092       20.2793066063  MEOH      2473            0.0000000000
     40969      3165  MEOH      H1A             5.8045007358       -2.9311371174       20.4551245865  MEOH      2473            0.0000000000
     40970      3165  MEOH      H1B             5.9081141540       -2.5127838122       18.6961276898  MEOH      2473            0.0000000000
     40971      3165  MEOH      H1C             7.0930046768       -1.8126751453       19.8765599473  MEOH      2473            0.0000000000
     40972      3165  MEOH      LP1A            7.6498612273       -3.8026341845       19.6140236545  MEOH      2473            0.0000000000
     40973      3165  MEOH      LP1B            7.2341461668       -4.0430833432       19.1646749142  MEOH      2473            0.0000000000
     40974      3166  MEOH      C1             10.2242411330       24.1364217897       -6.8782349124  MEOH      2474            0.0000000000
     40975      3166  MEOH      DC1            10.2348519536       24.1257072893       -6.8861102040  MEOH      2474            0.0000000000
     40976      3166  MEOH      O1              9.9512956564       25.5087184716       -6.6084666388  MEOH      2474            0.0000000000
     40977      3166  MEOH      DO1             9.9581634389       25.5021177462       -6.6218112421  MEOH      2474            0.0000000000
     40978      3166  MEOH      HO1            10.3168238313       25.7491451389       -5.7427390998  MEOH      2474            0.0000000000
     40979      3166  MEOH      HO2            10.1461530867       26.0066692989       -7.4177722395  MEOH      2474            0.0000000000
     40980      3166  MEOH      H1A             9.5589896643       23.7911448959       -7.6983235366  MEOH      2474            0.0000000000
     40981      3166  MEOH      H1B            10.0112925865       23.5201002518       -5.9787230009  MEOH      2474            0.0000000000
     40982      3166  MEOH      H1C            11.2856296820       24.0134711866       -7.1826334952  MEOH      2474            0.0000000000
     40983      3166  MEOH      LP1A           10.2093356796       25.7090407880       -6.7341102457  MEOH      2474            0.0000000000
     40984      3166  MEOH      LP1B            9.6420210933       25.5398810273       -6.4475998003  MEOH      2474            0.0000000000
     40985      3167  MEOH      C1             36.3422726359      -25.1807467306      -15.7220231041  MEOH      2475            0.0000000000
     40986      3167  MEOH      DC1            36.3561570949      -25.1648111246      -15.7203068911  MEOH      2475            0.0000000000
     40987      3167  MEOH      O1             35.5297815368      -25.7390545798      -14.6966538120  MEOH      2475            0.0000000000
     40988      3167  MEOH      DO1            35.5349607966      -25.7157883115      -14.6850421918  MEOH      2475            0.0000000000
     40989      3167  MEOH      HO1            34.7265142165      -25.1977128862      -14.6455579838  MEOH      2475            0.0000000000
     40990      3167  MEOH      HO2            35.4301191951      -26.6666530858      -14.9622257031  MEOH      2475            0.0000000000
     40991      3167  MEOH      H1A            37.1559126115      -25.8962772840      -15.9676386925  MEOH      2475            0.0000000000
     40992      3167  MEOH      H1B            36.7705032746      -24.2150548000      -15.3779611663  MEOH      2475            0.0000000000
     40993      3167  MEOH      H1C            35.7476198906      -25.0132523257      -16.6454161610  MEOH      2475            0.0000000000
     40994      3167  MEOH      LP1A           35.3199425153      -25.9849800816      -14.8307740290  MEOH      2475            0.0000000000
     40995      3167  MEOH      LP1B           35.6108028884      -25.5951755549      -14.3880531530  MEOH      2475            0.0000000000
     40996      3168  MEOH      C1            -32.4618179036       -4.9617140510      -18.6569604029  MEOH      2476            0.0000000000
     40997      3168  MEOH      DC1           -32.4715161827       -4.9549807100      -18.6382551771  MEOH      2476            0.0000000000
     40998      3168  MEOH      O1            -32.6166481453       -4.4351158729      -17.3377134132  MEOH      2476            0.0000000000
     40999      3168  MEOH      DO1           -32.6287627658       -4.4306870312      -17.3251298946  MEOH      2476            0.0000000000
     41000      3168  MEOH      HO1           -32.3312337436       -5.1426088861      -16.7386372441  MEOH      2476            0.0000000000
     41001      3168  MEOH      HO2           -32.1428880806       -3.5886937324      -17.3422917421  MEOH      2476            0.0000000000
     41002      3168  MEOH      H1A           -32.6153534272       -4.1416978657      -19.3906642260  MEOH      2476            0.0000000000
     41003      3168  MEOH      H1B           -33.1969495619       -5.7730272545      -18.8458342533  MEOH      2476            0.0000000000
     41004      3168  MEOH      H1C           -31.4401644845       -5.3634500730      -18.8277042456  MEOH      2476            0.0000000000
     41005      3168  MEOH      LP1A          -32.3238653202       -4.2704383599      -17.2394304847  MEOH      2476            0.0000000000
     41006      3168  MEOH      LP1B          -32.9392292483       -4.5016806509      -17.2193471920  MEOH      2476            0.0000000000
     41007      3169  MEOH      C1            -25.6069994421       -3.7961689903       15.4335224630  MEOH      2477            0.0000000000
     41008      3169  MEOH      DC1           -25.6219002834       -3.7926231525       15.4365707109  MEOH      2477            0.0000000000
     41009      3169  MEOH      O1            -24.6178897753       -4.5390539770       16.1467332578  MEOH      2477            0.0000000000
     41010      3169  MEOH      DO1           -24.6525358654       -4.5531454723       16.1522852576  MEOH      2477            0.0000000000
     41011      3169  MEOH      HO1           -24.0225255658       -4.9489492617       15.4998736793  MEOH      2477            0.0000000000
     41012      3169  MEOH      HO2           -24.1971841253       -3.8901156385       16.7322123682  MEOH      2477            0.0000000000
     41013      3169  MEOH      H1A           -26.1515362772       -3.1429259926       16.1484170155  MEOH      2477            0.0000000000
     41014      3169  MEOH      H1B           -26.3213337685       -4.4814521742       14.9291075246  MEOH      2477            0.0000000000
     41015      3169  MEOH      H1C           -25.1304707146       -3.1656677311       14.6526834689  MEOH      2477            0.0000000000
     41016      3169  MEOH      LP1A          -24.3442354454       -4.3337700244       16.2207049178  MEOH      2477            0.0000000000
     41017      3169  MEOH      LP1B          -24.7305062510       -4.8657518651       16.2022852094  MEOH      2477            0.0000000000
     41018      3170  MEOH      C1            -33.5261605563       21.0282508195      -36.1990101558  MEOH      2478            0.0000000000
     41019      3170  MEOH      DC1           -33.5184489005       21.0290722195      -36.2037066940  MEOH      2478            0.0000000000
     41020      3170  MEOH      O1            -33.2587634107       22.2985899134      -36.7977750107  MEOH      2478            0.0000000000
     41021      3170  MEOH      DO1           -33.2516716797       22.2973092316      -36.7962352556  MEOH      2478            0.0000000000
     41022      3170  MEOH      HO1           -33.8033913468       22.9579247880      -36.3400000276  MEOH      2478            0.0000000000
     41023      3170  MEOH      HO2           -32.2933337461       22.3872779894      -36.8290797690  MEOH      2478            0.0000000000
     41024      3170  MEOH      H1A           -33.0329146647       20.2277082327      -36.7907542365  MEOH      2478            0.0000000000
     41025      3170  MEOH      H1B           -34.6203686047       20.8368965048      -36.1786809948  MEOH      2478            0.0000000000
     41026      3170  MEOH      H1C           -33.1340256531       21.0046424183      -35.1597826247  MEOH      2478            0.0000000000
     41027      3170  MEOH      LP1A          -32.9898487712       22.4531389669      -36.6356037842  MEOH      2478            0.0000000000
     41028      3170  MEOH      LP1B          -33.4754591446       22.3518223270      -37.0674215739  MEOH      2478            0.0000000000
     41029      3171  MEOH      C1              3.8597506253       25.3964690982       23.3547058294  MEOH      2479            0.0000000000
     41030      3171  MEOH      DC1             3.8532998960       25.3923053078       23.3633041889  MEOH      2479            0.0000000000
     41031      3171  MEOH      O1              4.9122457208       26.2934956184       23.6960765524  MEOH      2479            0.0000000000
     41032      3171  MEOH      DO1             4.9136141211       26.2911569919       23.7098770065  MEOH      2479            0.0000000000
     41033      3171  MEOH      HO1             4.5759921455       27.1884762441       23.5322375661  MEOH      2479            0.0000000000
     41034      3171  MEOH      HO2             5.2691139737       26.0039031189       24.5502903631  MEOH      2479            0.0000000000
     41035      3171  MEOH      H1A             4.2583806766       24.3596201243       23.3357509374  MEOH      2479            0.0000000000
     41036      3171  MEOH      H1B             3.4610198097       25.6503777789       22.3492879468  MEOH      2479            0.0000000000
     41037      3171  MEOH      H1C             3.0409945520       25.4622368234       24.1027927897  MEOH      2479            0.0000000000
     41038      3171  MEOH      LP1A            4.8916981204       26.3787424822       24.0349139298  MEOH      2479            0.0000000000
     41039      3171  MEOH      LP1B            5.1163640807       26.3501172487       23.4174555084  MEOH      2479            0.0000000000
     41040      3172  MEOH      C1             21.2575304805      -24.2826723156       26.7960910605  MEOH      2480            0.0000000000
     41041      3172  MEOH      DC1            21.2676273165      -24.2845089655       26.8033365355  MEOH      2480            0.0000000000
     41042      3172  MEOH      O1             22.6187689474      -24.7253829975       26.8159671390  MEOH      2480            0.0000000000
     41043      3172  MEOH      DO1            22.6297199425      -24.7383086126       26.8268920842  MEOH      2480            0.0000000000
     41044      3172  MEOH      HO1            23.0900667704      -24.1466131001       27.4354861202  MEOH      2480            0.0000000000
     41045      3172  MEOH      HO2            22.6020876969      -25.6893441182       26.9227411759  MEOH      2480            0.0000000000
     41046      3172  MEOH      H1A            20.7032231990      -24.7759063060       25.9691783273  MEOH      2480            0.0000000000
     41047      3172  MEOH      H1B            21.2096631786      -23.1844070861       26.6353328314  MEOH      2480            0.0000000000
     41048      3172  MEOH      H1C            20.7573635478      -24.5365755084       27.7550942975  MEOH      2480            0.0000000000
     41049      3172  MEOH      LP1A           22.6606838975      -24.9726290057       27.0601239500  MEOH      2480            0.0000000000
     41050      3172  MEOH      LP1B           22.8019487458      -24.5603861824       26.5675295966  MEOH      2480            0.0000000000
     41051      3173  MEOH      C1            -24.9560723111      -24.5147596802       11.9636092336  MEOH      2481            0.0000000000
     41052      3173  MEOH      DC1           -24.9594234912      -24.5197005019       11.9710456548  MEOH      2481            0.0000000000
     41053      3173  MEOH      O1            -24.1488946244      -25.5564001710       12.5125429580  MEOH      2481            0.0000000000
     41054      3173  MEOH      DO1           -24.1621218041      -25.5659316672       12.5168042888  MEOH      2481            0.0000000000
     41055      3173  MEOH      HO1           -24.0999423136      -26.2567756340       11.8432314595  MEOH      2481            0.0000000000
     41056      3173  MEOH      HO2           -23.3283746891      -25.1233916333       12.7956518467  MEOH      2481            0.0000000000
     41057      3173  MEOH      H1A           -24.9562944047      -23.6420769183       12.6511743202  MEOH      2481            0.0000000000
     41058      3173  MEOH      H1B           -25.9965687538      -24.8583411672       11.7801973619  MEOH      2481            0.0000000000
     41059      3173  MEOH      H1C           -24.5439170249      -24.2102937450       10.9778356716  MEOH      2481            0.0000000000
     41060      3173  MEOH      LP1A          -23.8121205079      -25.4999552367       12.4357499645  MEOH      2481            0.0000000000
     41061      3173  MEOH      LP1B          -24.3489344939      -25.7814168120       12.6910130168  MEOH      2481            0.0000000000
     41062      3174  MEOH      C1            -36.0200496776      -18.7358733785      -32.3531493904  MEOH      2482            0.0000000000
     41063      3174  MEOH      DC1           -36.0202145396      -18.7329281350      -32.3555848262  MEOH      2482            0.0000000000
     41064      3174  MEOH      O1            -36.5963241558      -19.9796767511      -32.7615519082  MEOH      2482            0.0000000000
     41065      3174  MEOH      DO1           -36.5976338769      -19.9818747988      -32.7570053748  MEOH      2482            0.0000000000
     41066      3174  MEOH      HO1           -36.9394116329      -19.8539913071      -33.6601030491  MEOH      2482            0.0000000000
     41067      3174  MEOH      HO2           -35.9181296688      -20.6523406236      -32.5928049007  MEOH      2482            0.0000000000
     41068      3174  MEOH      H1A           -35.6707213880      -18.8160034851      -31.3015458938  MEOH      2482            0.0000000000
     41069      3174  MEOH      H1B           -36.7751730539      -17.9243892373      -32.4280037565  MEOH      2482            0.0000000000
     41070      3174  MEOH      H1C           -35.1514036527      -18.4853923869      -32.9989313631  MEOH      2482            0.0000000000
     41071      3174  MEOH      LP1A          -36.3532445585      -20.1797530519      -32.9144629387  MEOH      2482            0.0000000000
     41072      3174  MEOH      LP1B          -36.9330364468      -19.9924192323      -32.6668816266  MEOH      2482            0.0000000000
     41073      3175  MEOH      C1            -26.4561412954       10.3330872310        8.3125983152  MEOH      2483            0.0000000000
     41074      3175  MEOH      DC1           -26.4528919490       10.3564576751        8.3028465618  MEOH      2483            0.0000000000
     41075      3175  MEOH      O1            -25.1797999984       10.2924641941        7.6678668371  MEOH      2483            0.0000000000
     41076      3175  MEOH      DO1           -25.1837624852       10.3040763455        7.6403328592  MEOH      2483            0.0000000000
     41077      3175  MEOH      HO1           -24.7914108355        9.4326305921        7.8931223279  MEOH      2483            0.0000000000
     41078      3175  MEOH      HO2           -25.3143155089       10.5891007394        6.7541861832  MEOH      2483            0.0000000000
     41079      3175  MEOH      H1A           -26.9253466447       11.3401223495        8.3194983374  MEOH      2483            0.0000000000
     41080      3175  MEOH      H1B           -26.3127100490       10.0420406582        9.3751614297  MEOH      2483            0.0000000000
     41081      3175  MEOH      H1C           -27.1590154485        9.6401336209        7.8025941779  MEOH      2483            0.0000000000
     41082      3175  MEOH      LP1A          -25.2129209029       10.1616153956        7.3449402238  MEOH      2483            0.0000000000
     41083      3175  MEOH      LP1B          -24.9348913298       10.4270129105        7.8786187931  MEOH      2483            0.0000000000
     41084      3176  MEOH      C1            -30.5053219828       23.1812971617      -11.6611090192  MEOH      2484            0.0000000000
     41085      3176  MEOH      DC1           -30.5171925668       23.1875245683      -11.6555157310  MEOH      2484            0.0000000000
     41086      3176  MEOH      O1            -31.2568377733       23.8207657687      -10.6299514556  MEOH      2484            0.0000000000
     41087      3176  MEOH      DO1           -31.2679974175       23.8157677216      -10.6191241709  MEOH      2484            0.0000000000
     41088      3176  MEOH      HO1           -31.7011438554       24.5923581042      -11.0148376378  MEOH      2484            0.0000000000
     41089      3176  MEOH      HO2           -31.7454205537       23.1274980181      -10.1592427413  MEOH      2484            0.0000000000
     41090      3176  MEOH      H1A           -29.8268988516       22.4269486199      -11.2083162034  MEOH      2484            0.0000000000
     41091      3176  MEOH      H1B           -29.8887736461       23.9293130133      -12.2039362796  MEOH      2484            0.0000000000
     41092      3176  MEOH      H1C           -31.1891470976       22.6680007472      -12.3704967857  MEOH      2484            0.0000000000
     41093      3176  MEOH      LP1A          -31.5784468858       23.6836491284      -10.6136233901  MEOH      2484            0.0000000000
     41094      3176  MEOH      LP1B          -31.0577384484       24.0572263223      -10.4657994972  MEOH      2484            0.0000000000
     41095      3177  MEOH      C1             22.1974250812      -34.3453864262      -36.6185791395  MEOH      2485            0.0000000000
     41096      3177  MEOH      DC1            22.1951092578      -34.3524873282      -36.6163131551  MEOH      2485            0.0000000000
     41097      3177  MEOH      O1             21.6648768476      -35.4878402188      -35.9438792973  MEOH      2485            0.0000000000
     41098      3177  MEOH      DO1            21.6619365021      -35.4949753262      -35.9402574174  MEOH      2485            0.0000000000
     41099      3177  MEOH      HO1            20.9813608676      -35.8583545478      -36.5239008819  MEOH      2485            0.0000000000
     41100      3177  MEOH      HO2            22.4304103385      -36.0211682251      -35.6785121707  MEOH      2485            0.0000000000
     41101      3177  MEOH      H1A            22.9365016877      -33.8391101091      -35.9614862533  MEOH      2485            0.0000000000
     41102      3177  MEOH      H1B            21.3808308972      -33.6292433101      -36.8523182590  MEOH      2485            0.0000000000
     41103      3177  MEOH      H1C            22.7058169062      -34.6488612608      -37.5586651879  MEOH      2485            0.0000000000
     41104      3177  MEOH      LP1A           21.8496760353      -35.7731046441      -36.0273865895  MEOH      2485            0.0000000000
     41105      3177  MEOH      LP1B           21.3980649177      -35.3920464763      -35.7386112945  MEOH      2485            0.0000000000
     41106      3178  MEOH      C1             10.2353624032      -36.0219471719       16.0907263212  MEOH      2486            0.0000000000
     41107      3178  MEOH      DC1            10.2078831719      -36.0179733183       16.1287113890  MEOH      2486            0.0000000000
     41108      3178  MEOH      O1             10.7877411016      -36.2084801940       14.7935252119  MEOH      2486            0.0000000000
     41109      3178  MEOH      DO1            10.7737527739      -36.1858094787       14.8315255426  MEOH      2486            0.0000000000
     41110      3178  MEOH      HO1            10.5034893300      -37.0349555580       14.3727647054  MEOH      2486            0.0000000000
     41111      3178  MEOH      HO2            10.6913522276      -35.3646802786       14.3248986146  MEOH      2486            0.0000000000
     41112      3178  MEOH      H1A            10.7612550302      -35.2090678687       16.6356897922  MEOH      2486            0.0000000000
     41113      3178  MEOH      H1B            10.3584314330      -36.9520741754       16.6857378940  MEOH      2486            0.0000000000
     41114      3178  MEOH      H1C             9.1684531695      -35.7286190534       15.9908048423  MEOH      2486            0.0000000000
     41115      3178  MEOH      LP1A           10.5793730524      -36.0633041237       14.5526794839  MEOH      2486            0.0000000000
     41116      3178  MEOH      LP1B           11.0946655257      -36.3750619515       14.8169328160  MEOH      2486            0.0000000000
     41117      3179  MEOH      C1             -7.9672250753      -22.3359260810        0.9093877118  MEOH      2487            0.0000000000
     41118      3179  MEOH      DC1            -7.9786679387      -22.3416570948        0.9210008169  MEOH      2487            0.0000000000
     41119      3179  MEOH      O1             -6.5624228376      -22.0880873684        0.9609957353  MEOH      2487            0.0000000000
     41120      3179  MEOH      DO1            -6.5593849391      -22.0957241205        0.9765516510  MEOH      2487            0.0000000000
     41121      3179  MEOH      HO1            -6.2105204038      -22.4270016703        0.1230209307  MEOH      2487            0.0000000000
     41122      3179  MEOH      HO2            -6.4805107807      -21.1400421268        1.1491463019  MEOH      2487            0.0000000000
     41123      3179  MEOH      H1A            -8.4531270617      -21.9234633783        1.8193848433  MEOH      2487            0.0000000000
     41124      3179  MEOH      H1B            -8.1328447880      -23.4338866692        0.8723248242  MEOH      2487            0.0000000000
     41125      3179  MEOH      H1C            -8.4107019581      -21.8684421453        0.0043418422  MEOH      2487            0.0000000000
     41126      3179  MEOH      LP1A           -6.4920666678      -21.7705176577        0.8317692357  MEOH      2487            0.0000000000
     41127      3179  MEOH      LP1B           -6.3983727930      -22.3593805970        1.1092777875  MEOH      2487            0.0000000000
     41128      3180  MEOH      C1             -0.9032198968       -1.4965880474      -17.0423197257  MEOH      2488            0.0000000000
     41129      3180  MEOH      DC1            -0.8925596022       -1.5042065112      -17.0476552381  MEOH      2488            0.0000000000
     41130      3180  MEOH      O1              0.4582194663       -1.3098958389      -16.6511250200  MEOH      2488            0.0000000000
     41131      3180  MEOH      DO1             0.4656706694       -1.3199554909      -16.6515701101  MEOH      2488            0.0000000000
     41132      3180  MEOH      HO1             0.9282275906       -0.9418145322      -17.4156565855  MEOH      2488            0.0000000000
     41133      3180  MEOH      HO2             0.4325271748       -0.8043810112      -15.8236622312  MEOH      2488            0.0000000000
     41134      3180  MEOH      H1A            -1.4939476743       -1.9311912053      -16.2077648809  MEOH      2488            0.0000000000
     41135      3180  MEOH      H1B            -0.9663808418       -2.1846201258      -17.9123447565  MEOH      2488            0.0000000000
     41136      3180  MEOH      H1C            -1.3596033994       -0.5151913970      -17.2931099042  MEOH      2488            0.0000000000
     41137      3180  MEOH      LP1A            0.4998530151       -0.9921222044      -16.5104602951  MEOH      2488            0.0000000000
     41138      3180  MEOH      LP1B            0.6422773824       -1.6004821450      -16.7157955870  MEOH      2488            0.0000000000
     41139      3181  MEOH      C1             22.9329242753       24.4498444547      -11.9881220407  MEOH      2489            0.0000000000
     41140      3181  MEOH      DC1            22.9352327998       24.4547495687      -11.9921068270  MEOH      2489            0.0000000000
     41141      3181  MEOH      O1             22.9676403361       24.3666267446      -13.4073330689  MEOH      2489            0.0000000000
     41142      3181  MEOH      DO1            22.9599178450       24.3719993131      -13.4055938695  MEOH      2489            0.0000000000
     41143      3181  MEOH      HO1            22.2138207794       23.8254653382      -13.6898227292  MEOH      2489            0.0000000000
     41144      3181  MEOH      HO2            23.0809820014       25.2764799424      -13.7239097991  MEOH      2489            0.0000000000
     41145      3181  MEOH      H1A            23.8646700319       24.9217879268      -11.6093870328  MEOH      2489            0.0000000000
     41146      3181  MEOH      H1B            22.8452326094       23.4303717384      -11.5553327699  MEOH      2489            0.0000000000
     41147      3181  MEOH      H1C            22.0632321483       25.0598472536      -11.6627711692  MEOH      2489            0.0000000000
     41148      3181  MEOH      LP1A           22.7889658313       24.6330691636      -13.5472754094  MEOH      2489            0.0000000000
     41149      3181  MEOH      LP1B           23.1616146611       24.0926830522      -13.5064734475  MEOH      2489            0.0000000000
     41150      3182  MEOH      C1             33.5506721924       19.6028478795      -16.1832122136  MEOH      2490            0.0000000000
     41151      3182  MEOH      DC1            33.5295757255       19.6019456493      -16.1822369347  MEOH      2490            0.0000000000
     41152      3182  MEOH      O1             34.2768039956       19.6499735014      -14.9574984171  MEOH      2490            0.0000000000
     41153      3182  MEOH      DO1            34.2671654276       19.6481181684      -14.9602113908  MEOH      2490            0.0000000000
     41154      3182  MEOH      HO1            35.0342759077       20.2400511839      -15.0951379132  MEOH      2490            0.0000000000
     41155      3182  MEOH      HO2            33.6222184565       19.8394770486      -14.2672041474  MEOH      2490            0.0000000000
     41156      3182  MEOH      H1A            32.7584551024       18.8261433920      -16.1245332299  MEOH      2490            0.0000000000
     41157      3182  MEOH      H1B            34.2385552749       19.3542949332      -17.0194892596  MEOH      2490            0.0000000000
     41158      3182  MEOH      H1C            33.0935548227       20.5950605484      -16.3853971090  MEOH      2490            0.0000000000
     41159      3182  MEOH      LP1A           34.1523032406       19.9063829257      -14.7543881781  MEOH      2490            0.0000000000
     41160      3182  MEOH      LP1B           34.5156915191       19.3942858662      -14.9499761647  MEOH      2490            0.0000000000
     41161      3183  MEOH      C1            -34.0098575468       -5.9764840112      -14.3814488758  MEOH      2491            0.0000000000
     41162      3183  MEOH      DC1           -34.0167187688       -5.9858652409      -14.3826426147  MEOH      2491            0.0000000000
     41163      3183  MEOH      O1            -33.5556022511       -7.2971259489      -14.6840857435  MEOH      2491            0.0000000000
     41164      3183  MEOH      DO1           -33.5697629293       -7.3073855641      -14.6765520284  MEOH      2491            0.0000000000
     41165      3183  MEOH      HO1           -33.3615457439       -7.7469182642      -13.8468707501  MEOH      2491            0.0000000000
     41166      3183  MEOH      HO2           -34.1651940552       -7.6622241959      -15.3443895403  MEOH      2491            0.0000000000
     41167      3183  MEOH      H1A           -34.0114328113       -5.3660619800      -15.3097287168  MEOH      2491            0.0000000000
     41168      3183  MEOH      H1B           -33.3353442169       -5.4936197577      -13.6423988906  MEOH      2491            0.0000000000
     41169      3183  MEOH      H1C           -35.0424887945       -6.0096740722      -13.9729245455  MEOH      2491            0.0000000000
     41170      3183  MEOH      LP1A          -33.8279577898       -7.5162118940      -14.7020804434  MEOH      2491            0.0000000000
     41171      3183  MEOH      LP1B          -33.2083687859       -7.2971537457      -14.7280052136  MEOH      2491            0.0000000000
     41172      3184  MEOH      C1             -6.9943529286        6.6741924730      -30.0490310750  MEOH      2492            0.0000000000
     41173      3184  MEOH      DC1            -6.9856160108        6.6736906050      -30.0444711431  MEOH      2492            0.0000000000
     41174      3184  MEOH      O1             -6.4462737169        7.2375091378      -28.8569932699  MEOH      2492            0.0000000000
     41175      3184  MEOH      DO1            -6.4263380455        7.2384877876      -28.8575474997  MEOH      2492            0.0000000000
     41176      3184  MEOH      HO1            -5.4808565990        7.1616117118      -28.9127549872  MEOH      2492            0.0000000000
     41177      3184  MEOH      HO2            -6.8709243614        8.1043997521      -28.7617436319  MEOH      2492            0.0000000000
     41178      3184  MEOH      H1A            -8.1039381707        6.6841465429      -29.9938721332  MEOH      2492            0.0000000000
     41179      3184  MEOH      H1B            -6.6608379913        5.6194360743      -30.1518791511  MEOH      2492            0.0000000000
     41180      3184  MEOH      H1C            -6.6778743103        7.2499276592      -30.9449614738  MEOH      2492            0.0000000000
     41181      3184  MEOH      LP1A           -6.3909015839        7.5802815271      -28.9010502333  MEOH      2492            0.0000000000
     41182      3184  MEOH      LP1B           -6.4203330243        6.9915761710      -28.6093159469  MEOH      2492            0.0000000000
     41183      3185  MEOH      C1             -1.9133843379      -25.8304283150       32.4696760017  MEOH      2493            0.0000000000
     41184      3185  MEOH      DC1            -1.9312172979      -25.8221117779       32.4695583910  MEOH      2493            0.0000000000
     41185      3185  MEOH      O1             -1.0420332410      -26.4058459872       31.4968491723  MEOH      2493            0.0000000000
     41186      3185  MEOH      DO1            -1.0739380504      -26.4110955325       31.4926342489  MEOH      2493            0.0000000000
     41187      3185  MEOH      HO1            -1.2203696305      -27.3549450560       31.4057059345  MEOH      2493            0.0000000000
     41188      3185  MEOH      HO2            -1.0070396941      -25.8004393079       30.7397770454  MEOH      2493            0.0000000000
     41189      3185  MEOH      H1A            -1.5420505255      -24.8141148391       32.7217456727  MEOH      2493            0.0000000000
     41190      3185  MEOH      H1B            -1.9017934886      -26.4417965459       33.3972618675  MEOH      2493            0.0000000000
     41191      3185  MEOH      H1C            -2.9462031213      -25.7635752984       32.0657737406  MEOH      2493            0.0000000000
     41192      3185  MEOH      LP1A           -1.1870418582      -26.3849388738       31.1789885211  MEOH      2493            0.0000000000
     41193      3185  MEOH      LP1B           -0.7460120998      -26.5130186724       31.6497723538  MEOH      2493            0.0000000000
     41194      3186  MEOH      C1            -15.4274885495      -19.0820771840       -4.4533701665  MEOH      2494            0.0000000000
     41195      3186  MEOH      DC1           -15.4264404287      -19.0850793787       -4.4382258317  MEOH      2494            0.0000000000
     41196      3186  MEOH      O1            -15.8812474574      -20.1402969728       -5.2992877353  MEOH      2494            0.0000000000
     41197      3186  MEOH      DO1           -15.8717906798      -20.1424672626       -5.2881882913  MEOH      2494            0.0000000000
     41198      3186  MEOH      HO1           -16.1852810896      -20.8747835554       -4.7434163379  MEOH      2494            0.0000000000
     41199      3186  MEOH      HO2           -16.5129032113      -19.7268897542       -5.9083899276  MEOH      2494            0.0000000000
     41200      3186  MEOH      H1A           -15.0813591938      -18.2376397325       -5.0869637746  MEOH      2494            0.0000000000
     41201      3186  MEOH      H1B           -14.5810031121      -19.4250589689       -3.8207985108  MEOH      2494            0.0000000000
     41202      3186  MEOH      H1C           -16.2575556217      -18.7189173810       -3.8103891292  MEOH      2494            0.0000000000
     41203      3186  MEOH      LP1A          -16.2210328617      -20.0981785425       -5.3718957023  MEOH      2494            0.0000000000
     41204      3186  MEOH      LP1B          -15.6149350899      -20.3534453063       -5.3776810440  MEOH      2494            0.0000000000
     41205      3187  MEOH      C1            -15.5074285536       18.0997861707        3.1061213618  MEOH      2495            0.0000000000
     41206      3187  MEOH      DC1           -15.5105357076       18.1104850541        3.0989764171  MEOH      2495            0.0000000000
     41207      3187  MEOH      O1            -15.7690992745       19.3578397119        2.4756027457  MEOH      2495            0.0000000000
     41208      3187  MEOH      DO1           -15.7797119645       19.3654425201        2.4680350106  MEOH      2495            0.0000000000
     41209      3187  MEOH      HO1           -15.2301567898       19.3864393524        1.6696107738  MEOH      2495            0.0000000000
     41210      3187  MEOH      HO2           -16.7341980772       19.4516951235        2.4496130530  MEOH      2495            0.0000000000
     41211      3187  MEOH      H1A           -15.9164065869       18.1062321292        4.1390862298  MEOH      2495            0.0000000000
     41212      3187  MEOH      H1B           -14.4130987282       17.9139625809        3.1533741567  MEOH      2495            0.0000000000
     41213      3187  MEOH      H1C           -15.9880872282       17.2728406842        2.5409228105  MEOH      2495            0.0000000000
     41214      3187  MEOH      LP1A          -16.0411466852       19.3280978665        2.2574156037  MEOH      2495            0.0000000000
     41215      3187  MEOH      LP1B          -15.5481229101       19.6007193604        2.5967593498  MEOH      2495            0.0000000000
     41216      3188  MEOH      C1            -10.1511219466      -18.3715762344      -22.4315007475  MEOH      2496            0.0000000000
     41217      3188  MEOH      DC1           -10.1543200597      -18.3837694297      -22.4398591179  MEOH      2496            0.0000000000
     41218      3188  MEOH      O1             -9.6673294428      -17.2240991632      -21.7364956165  MEOH      2496            0.0000000000
     41219      3188  MEOH      DO1            -9.6607366808      -17.2305808463      -21.7518215540  MEOH      2496            0.0000000000
     41220      3188  MEOH      HO1           -10.3813314450      -16.5678599006      -21.7152548330  MEOH      2496            0.0000000000
     41221      3188  MEOH      HO2            -9.3473311397      -17.5663515818      -20.8871638974  MEOH      2496            0.0000000000
     41222      3188  MEOH      H1A            -9.3863358287      -19.1743833688      -22.3613302449  MEOH      2496            0.0000000000
     41223      3188  MEOH      H1B           -10.3434161927      -18.1401383854      -23.5009774629  MEOH      2496            0.0000000000
     41224      3188  MEOH      H1C           -11.0886543029      -18.7343878991      -21.9585083808  MEOH      2496            0.0000000000
     41225      3188  MEOH      LP1A           -9.7294318305      -17.2568223343      -21.3936071689  MEOH      2496            0.0000000000
     41226      3188  MEOH      LP1B           -9.5138858350      -17.0039330011      -21.9611774366  MEOH      2496            0.0000000000
     41227      3189  MEOH      C1             -8.8173862854        3.1902388418       10.7726932041  MEOH      2497            0.0000000000
     41228      3189  MEOH      DC1            -8.8053623570        3.2007972907       10.7759843715  MEOH      2497            0.0000000000
     41229      3189  MEOH      O1             -9.1017712804        4.2674990375       11.6696920303  MEOH      2497            0.0000000000
     41230      3189  MEOH      DO1            -9.0773237917        4.2798274080       11.6712602398  MEOH      2497            0.0000000000
     41231      3189  MEOH      HO1            -8.9578123013        3.9558757376       12.5769222836  MEOH      2497            0.0000000000
     41232      3189  MEOH      HO2            -8.6899548517        5.0633929500       11.2983968525  MEOH      2497            0.0000000000
     41233      3189  MEOH      H1A            -9.1936590147        3.4410947519        9.7578970934  MEOH      2497            0.0000000000
     41234      3189  MEOH      H1B            -9.3273668003        2.2635921650       11.1126443929  MEOH      2497            0.0000000000
     41235      3189  MEOH      H1C            -7.7224600266        3.0126786263       10.7100046102  MEOH      2497            0.0000000000
     41236      3189  MEOH      LP1A           -8.8129765505        4.4577106764       11.7237025514  MEOH      2497            0.0000000000
     41237      3189  MEOH      LP1B           -9.4407188668        4.2643539143       11.7568966282  MEOH      2497            0.0000000000
     41238      3190  MEOH      C1            -28.7777889365       10.2795841247      -12.4184243371  MEOH      2498            0.0000000000
     41239      3190  MEOH      DC1           -28.7734309047       10.2790820791      -12.4222404415  MEOH      2498            0.0000000000
     41240      3190  MEOH      O1            -29.6051074495        9.1701652003      -12.0727924947  MEOH      2498            0.0000000000
     41241      3190  MEOH      DO1           -29.6114015653        9.1725265304      -12.0837745844  MEOH      2498            0.0000000000
     41242      3190  MEOH      HO1           -30.0514682448        9.3917620527      -11.2405924727  MEOH      2498            0.0000000000
     41243      3190  MEOH      HO2           -30.1087728026        8.9450522668      -12.8706304352  MEOH      2498            0.0000000000
     41244      3190  MEOH      H1A           -28.1106062176        9.9665630528      -13.2498123513  MEOH      2498            0.0000000000
     41245      3190  MEOH      H1B           -28.1439148084       10.5829785401      -11.5579149421  MEOH      2498            0.0000000000
     41246      3190  MEOH      H1C           -29.3920935381       11.1437038778      -12.7504603423  MEOH      2498            0.0000000000
     41247      3190  MEOH      LP1A          -29.9216704068        9.2072681693      -12.2173997688  MEOH      2498            0.0000000000
     41248      3190  MEOH      LP1B          -29.4239411784        8.9413322111      -11.8796235394  MEOH      2498            0.0000000000
     41249      3191  MEOH      C1             -9.1054279790        3.5564677423      -13.8295584252  MEOH      2499            0.0000000000
     41250      3191  MEOH      DC1            -9.1108473386        3.5658897609      -13.8311944384  MEOH      2499            0.0000000000
     41251      3191  MEOH      O1             -8.1464058402        2.5025859466      -13.7533939880  MEOH      2499            0.0000000000
     41252      3191  MEOH      DO1            -8.1427444361        2.5125509223      -13.7715990103  MEOH      2499            0.0000000000
     41253      3191  MEOH      HO1            -7.7284986847        2.5521642412      -12.8794399834  MEOH      2499            0.0000000000
     41254      3191  MEOH      HO2            -8.6381429469        1.6952636529      -13.9709378530  MEOH      2499            0.0000000000
     41255      3191  MEOH      H1A            -9.6908175894        3.4854786456      -14.7711531113  MEOH      2499            0.0000000000
     41256      3191  MEOH      H1B            -8.6073992557        4.5495687928      -13.8233379489  MEOH      2499            0.0000000000
     41257      3191  MEOH      H1C            -9.7943256499        3.4802965907      -12.9612618418  MEOH      2499            0.0000000000
     41258      3191  MEOH      LP1A           -8.2976511704        2.2117308945      -13.6308044747  MEOH      2499            0.0000000000
     41259      3191  MEOH      LP1B           -7.8370147970        2.6133401935      -13.8738542686  MEOH      2499            0.0000000000
     41260      3192  MEOH      C1             32.5001488180       13.5857190132       -3.5530928764  MEOH      2500            0.0000000000
     41261      3192  MEOH      DC1            32.4913503365       13.5873342498       -3.5552973271  MEOH      2500            0.0000000000
     41262      3192  MEOH      O1             31.1404712403       13.2041459900       -3.3956373034  MEOH      2500            0.0000000000
     41263      3192  MEOH      DO1            31.1277124939       13.2080587368       -3.4013821637  MEOH      2500            0.0000000000
     41264      3192  MEOH      HO1            30.8573125909       13.5321277981       -2.5277956630  MEOH      2500            0.0000000000
     41265      3192  MEOH      HO2            30.6880710081       13.4527375553       -4.2168779895  MEOH      2500            0.0000000000
     41266      3192  MEOH      H1A            32.9525137861       13.0514856895       -4.4158104973  MEOH      2500            0.0000000000
     41267      3192  MEOH      H1B            33.0776614023       13.3095258495       -2.6450633876  MEOH      2500            0.0000000000
     41268      3192  MEOH      H1C            32.5720743259       14.6816888737       -3.7204182668  MEOH      2500            0.0000000000
     41269      3192  MEOH      LP1A           30.9306697447       13.4523516694       -3.5255498630  MEOH      2500            0.0000000000
     41270      3192  MEOH      LP1B           31.1213827761       12.8866708502       -3.2495374534  MEOH      2500            0.0000000000
     41271      3193  MEOH      C1            -22.3137319675      -34.7417372280      -33.6861775201  MEOH      2501            0.0000000000
     41272      3193  MEOH      DC1           -22.2951363692      -34.7304108981      -33.6966477242  MEOH      2501            0.0000000000
     41273      3193  MEOH      O1            -23.6943225270      -35.0860204085      -33.8345903466  MEOH      2501            0.0000000000
     41274      3193  MEOH      DO1           -23.6674028638      -35.0792610949      -33.8658063921  MEOH      2501            0.0000000000
     41275      3193  MEOH      HO1           -24.2565605975      -34.3258328005      -34.0511617039  MEOH      2501            0.0000000000
     41276      3193  MEOH      HO2           -23.7468877284      -35.9442511072      -34.2835635841  MEOH      2501            0.0000000000
     41277      3193  MEOH      H1A           -21.8327285644      -35.5001791336      -33.0321724728  MEOH      2501            0.0000000000
     41278      3193  MEOH      H1B           -22.2084279143      -33.7352763012      -33.2276271289  MEOH      2501            0.0000000000
     41279      3193  MEOH      H1C           -21.7936979966      -34.7631296428      -34.6677212197  MEOH      2501            0.0000000000
     41280      3193  MEOH      LP1A          -23.7602887232      -35.1758891800      -34.1663614497  MEOH      2501            0.0000000000
     41281      3193  MEOH      LP1B          -23.8569115555      -35.0647409310      -33.5253784587  MEOH      2501            0.0000000000
     41282      3194  MEOH      C1            -30.6647905688       -1.0111470028       22.8378603655  MEOH      2502            0.0000000000
     41283      3194  MEOH      DC1           -30.6713171364       -1.0118000816       22.8324335353  MEOH      2502            0.0000000000
     41284      3194  MEOH      O1            -31.6452085926       -0.1497731993       23.4181622532  MEOH      2502            0.0000000000
     41285      3194  MEOH      DO1           -31.6505034765       -0.1459647675       23.4015545620  MEOH      2502            0.0000000000
     41286      3194  MEOH      HO1           -32.3220130365       -0.7148482509       23.8225456501  MEOH      2502            0.0000000000
     41287      3194  MEOH      HO2           -31.1447535804        0.4729055225       23.9683585728  MEOH      2502            0.0000000000
     41288      3194  MEOH      H1A           -29.8938357177       -0.3996549758       22.3220821969  MEOH      2502            0.0000000000
     41289      3194  MEOH      H1B           -31.1364908719       -1.6947545219       22.0999575373  MEOH      2502            0.0000000000
     41290      3194  MEOH      H1C           -30.1681745408       -1.6289493864       23.6163292072  MEOH      2502            0.0000000000
     41291      3194  MEOH      LP1A          -31.5563141764       -0.0720770781       23.7476483614  MEOH      2502            0.0000000000
     41292      3194  MEOH      LP1B          -31.8925092436       -0.0739234454       23.1823886269  MEOH      2502            0.0000000000
     41293      3195  MEOH      C1            -27.9409427009      -24.4440774667       -1.4822756817  MEOH      2503            0.0000000000
     41294      3195  MEOH      DC1           -27.9403111340      -24.4412727373       -1.4820015135  MEOH      2503            0.0000000000
     41295      3195  MEOH      O1            -28.3365909799      -23.0721088983       -1.4025489988  MEOH      2503            0.0000000000
     41296      3195  MEOH      DO1           -28.3396742578      -23.0732990338       -1.4058271750  MEOH      2503            0.0000000000
     41297      3195  MEOH      HO1           -27.9463502487      -22.6930371692       -0.5994818806  MEOH      2503            0.0000000000
     41298      3195  MEOH      HO2           -28.1305420033      -22.6837237728       -2.2671881221  MEOH      2503            0.0000000000
     41299      3195  MEOH      H1A           -28.4275849057      -24.9212379200       -2.3596685620  MEOH      2503            0.0000000000
     41300      3195  MEOH      H1B           -28.2507151551      -24.9856829701       -0.5630229921  MEOH      2503            0.0000000000
     41301      3195  MEOH      H1C           -26.8390252964      -24.5210695079       -1.6013187827  MEOH      2503            0.0000000000
     41302      3195  MEOH      LP1A          -28.1054956262      -22.8708598956       -1.5716459427  MEOH      2503            0.0000000000
     41303      3195  MEOH      LP1B          -28.6398141215      -23.0448063504       -1.2298924112  MEOH      2503            0.0000000000
     41304      3196  MEOH      C1             35.8722879322        5.0377068747      -23.0868423927  MEOH      2504            0.0000000000
     41305      3196  MEOH      DC1            35.8666413276        5.0267290551      -23.0733004234  MEOH      2504            0.0000000000
     41306      3196  MEOH      O1             34.7124260128        5.6586300455      -22.5282902059  MEOH      2504            0.0000000000
     41307      3196  MEOH      DO1            34.7117210308        5.6441256576      -22.5226713881  MEOH      2504            0.0000000000
     41308      3196  MEOH      HO1            34.2556980907        6.1457819074      -23.2318402530  MEOH      2504            0.0000000000
     41309      3196  MEOH      HO2            34.2523955424        4.9736414421      -22.0183268935  MEOH      2504            0.0000000000
     41310      3196  MEOH      H1A            36.5047628176        4.6221257209      -22.2734612856  MEOH      2504            0.0000000000
     41311      3196  MEOH      H1B            36.4722776570        5.7774639311      -23.6587626915  MEOH      2504            0.0000000000
     41312      3196  MEOH      H1C            35.5737754142        4.2189492693      -23.7759340124  MEOH      2504            0.0000000000
     41313      3196  MEOH      LP1A           34.4392841025        5.4405642502      -22.5467511308  MEOH      2504            0.0000000000
     41314      3196  MEOH      LP1B           34.7938684903        5.9762929649      -22.4059897869  MEOH      2504            0.0000000000
     41315      3197  MEOH      C1            -13.3357228060       20.5032746628       -3.0520174499  MEOH      2505            0.0000000000
     41316      3197  MEOH      DC1           -13.3382552820       20.5054502909       -3.0498484150  MEOH      2505            0.0000000000
     41317      3197  MEOH      O1            -12.1034767223       19.8554944273       -3.3778089015  MEOH      2505            0.0000000000
     41318      3197  MEOH      DO1           -12.1070603440       19.8555932204       -3.3744466917  MEOH      2505            0.0000000000
     41319      3197  MEOH      HO1           -11.7063688515       19.5296866615       -2.5549756020  MEOH      2505            0.0000000000
     41320      3197  MEOH      HO2           -12.3070398015       19.2413155482       -4.1004750615  MEOH      2505            0.0000000000
     41321      3197  MEOH      H1A           -13.7514621984       20.9823142661       -3.9641593337  MEOH      2505            0.0000000000
     41322      3197  MEOH      H1B           -13.1651047724       21.2865616070       -2.2828152324  MEOH      2505            0.0000000000
     41323      3197  MEOH      H1C           -14.0675362879       19.7615191787       -2.6665711761  MEOH      2505            0.0000000000
     41324      3197  MEOH      LP1A          -12.1606567684       19.5171253583       -3.4466334282  MEOH      2505            0.0000000000
     41325      3197  MEOH      LP1B          -11.8416554573       20.0877434735       -3.3746457220  MEOH      2505            0.0000000000
     41326      3198  MEOH      C1             17.2690239569      -34.3219165883      -20.2853679594  MEOH      2506            0.0000000000
     41327      3198  MEOH      DC1            17.2602592890      -34.3120055887      -20.2772749850  MEOH      2506            0.0000000000
     41328      3198  MEOH      O1             17.7596920754      -35.6209178433      -19.9485509767  MEOH      2506            0.0000000000
     41329      3198  MEOH      DO1            17.7482781703      -35.6139461615      -19.9419317651  MEOH      2506            0.0000000000
     41330      3198  MEOH      HO1            18.4858263841      -35.5297741824      -19.3119020949  MEOH      2506            0.0000000000
     41331      3198  MEOH      HO2            16.9845582359      -36.1777998584      -19.7754904282  MEOH      2506            0.0000000000
     41332      3198  MEOH      H1A            16.6359226364      -34.3857332900      -21.1960990649  MEOH      2506            0.0000000000
     41333      3198  MEOH      H1B            18.1212627975      -33.6371660964      -20.4831727233  MEOH      2506            0.0000000000
     41334      3198  MEOH      H1C            16.6546852135      -33.9129025003      -19.4549365146  MEOH      2506            0.0000000000
     41335      3198  MEOH      LP1A           17.5816442483      -35.7491393406      -19.6758639421  MEOH      2506            0.0000000000
     41336      3198  MEOH      LP1B           18.0122245441      -35.7150983292      -20.1718386573  MEOH      2506            0.0000000000
     41337      3199  MEOH      C1             -7.4115060474        3.6595018721       -1.4403349257  MEOH      2507            0.0000000000
     41338      3199  MEOH      DC1            -7.4127310613        3.6590710124       -1.4261167257  MEOH      2507            0.0000000000
     41339      3199  MEOH      O1             -8.0886131295        2.6996675379       -2.2479085025  MEOH      2507            0.0000000000
     41340      3199  MEOH      DO1            -8.0879796611        2.6883511508       -2.2234476108  MEOH      2507            0.0000000000
     41341      3199  MEOH      HO1            -8.8284396649        2.3250792939       -1.7446785899  MEOH      2507            0.0000000000
     41342      3199  MEOH      HO2            -8.2788896712        3.1579696022       -3.0813675935  MEOH      2507            0.0000000000
     41343      3199  MEOH      H1A            -6.5782776204        4.1043008753       -2.0253180342  MEOH      2507            0.0000000000
     41344      3199  MEOH      H1B            -6.9965030596        3.1700099432       -0.5334219352  MEOH      2507            0.0000000000
     41345      3199  MEOH      H1C            -8.1167401157        4.4701858188       -1.1579213149  MEOH      2507            0.0000000000
     41346      3199  MEOH      LP1A           -8.3395776477        2.8562987209       -2.4349472234  MEOH      2507            0.0000000000
     41347      3199  MEOH      LP1B           -7.9439987524        2.3838324122       -2.2050732916  MEOH      2507            0.0000000000
     41348      3200  MEOH      C1            -31.3016559189       12.0730999665       20.0156212511  MEOH      2508            0.0000000000
     41349      3200  MEOH      DC1           -31.2990834132       12.0782129778       20.0185803301  MEOH      2508            0.0000000000
     41350      3200  MEOH      O1            -30.0253809607       11.9369736504       20.6262911339  MEOH      2508            0.0000000000
     41351      3200  MEOH      DO1           -30.0322579575       11.9487094460       20.6458325145  MEOH      2508            0.0000000000
     41352      3200  MEOH      HO1           -29.5360327482       12.7696570568       20.5364208290  MEOH      2508            0.0000000000
     41353      3200  MEOH      HO2           -30.1611960074       11.4936901729       21.4783204957  MEOH      2508            0.0000000000
     41354      3200  MEOH      H1A           -31.7397899753       11.0573233578       19.9128718886  MEOH      2508            0.0000000000
     41355      3200  MEOH      H1B           -31.1893237192       12.5132289786       19.0017233618  MEOH      2508            0.0000000000
     41356      3200  MEOH      H1C           -31.9727562069       12.7054846689       20.6353268196  MEOH      2508            0.0000000000
     41357      3200  MEOH      LP1A          -30.0445873176       12.0246157955       20.9645956864  MEOH      2508            0.0000000000
     41358      3200  MEOH      LP1B          -29.7937239329       11.8155737769       20.3937033178  MEOH      2508            0.0000000000
     41359      3201  MEOH      C1             24.2046863019       18.8624423952      -31.0922895767  MEOH      2509            0.0000000000
     41360      3201  MEOH      DC1            24.1952513575       18.8692307836      -31.0841703392  MEOH      2509            0.0000000000
     41361      3201  MEOH      O1             24.3284177696       19.8338995666      -30.0469753747  MEOH      2509            0.0000000000
     41362      3201  MEOH      DO1            24.3217067024       19.8335051288      -30.0361948952  MEOH      2509            0.0000000000
     41363      3201  MEOH      HO1            25.2803832328       19.9561929154      -29.9065969769  MEOH      2509            0.0000000000
     41364      3201  MEOH      HO2            23.7836448520       20.5894730720      -30.3175879137  MEOH      2509            0.0000000000
     41365      3201  MEOH      H1A            23.1318839303       18.6814483952      -31.3173612177  MEOH      2509            0.0000000000
     41366      3201  MEOH      H1B            24.6882417381       17.9075417721      -30.7945313827  MEOH      2509            0.0000000000
     41367      3201  MEOH      H1C            24.7227483155       19.2153808855      -32.0095502662  MEOH      2509            0.0000000000
     41368      3201  MEOH      LP1A           24.3351418715       20.1562022576      -30.1832683013  MEOH      2509            0.0000000000
     41369      3201  MEOH      LP1B           24.3309378509       19.6746990737      -29.7352882684  MEOH      2509            0.0000000000
     41370      3202  MEOH      C1            -36.0178965173       16.4594608315      -18.7606158034  MEOH      2510            0.0000000000
     41371      3202  MEOH      DC1           -36.0358960671       16.4643869645      -18.7576074550  MEOH      2510            0.0000000000
     41372      3202  MEOH      O1            -35.2711291873       15.3044974454      -19.1399257994  MEOH      2510            0.0000000000
     41373      3202  MEOH      DO1           -35.2882971665       15.3063919252      -19.1437800519  MEOH      2510            0.0000000000
     41374      3202  MEOH      HO1           -34.5602251422       15.1866832048      -18.4905913375  MEOH      2510            0.0000000000
     41375      3202  MEOH      HO2           -35.9184203970       14.6042862889      -19.3177415095  MEOH      2510            0.0000000000
     41376      3202  MEOH      H1A           -36.7035825619       16.7415118924      -19.5880231080  MEOH      2510            0.0000000000
     41377      3202  MEOH      H1B           -35.3439212515       17.3122203128      -18.5306601374  MEOH      2510            0.0000000000
     41378      3202  MEOH      H1C           -36.6019569792       16.2374354058      -17.8419759997  MEOH      2510            0.0000000000
     41379      3202  MEOH      LP1A          -35.4101306037       15.0186376579      -18.9934239628  MEOH      2510            0.0000000000
     41380      3202  MEOH      LP1B          -35.0137273517       15.3950418659      -19.3591197841  MEOH      2510            0.0000000000
     41381      3203  MEOH      C1             16.3057242320      -36.5841531723        9.8935934359  MEOH      2511            0.0000000000
     41382      3203  MEOH      DC1            16.3134607756      -36.5725770075        9.8802582960  MEOH      2511            0.0000000000
     41383      3203  MEOH      O1             15.7954353681      -35.2951906709        9.6871265592  MEOH      2511            0.0000000000
     41384      3203  MEOH      DO1            15.8015545148      -35.2877534355        9.6945863751  MEOH      2511            0.0000000000
     41385      3203  MEOH      HO1            14.9668646940      -35.4123449201        9.1965702220  MEOH      2511            0.0000000000
     41386      3203  MEOH      HO2            15.7915829205      -34.8943100010       10.5704044587  MEOH      2511            0.0000000000
     41387      3203  MEOH      H1A            17.2896763758      -36.5440098077       10.4079354327  MEOH      2511            0.0000000000
     41388      3203  MEOH      H1B            16.3528336435      -37.1783973965        8.9560565005  MEOH      2511            0.0000000000
     41389      3203  MEOH      H1C            15.5546575792      -36.9944201620       10.6020430685  MEOH      2511            0.0000000000
     41390      3203  MEOH      LP1A           15.5912234760      -35.2028102034        9.9559449967  MEOH      2511            0.0000000000
     41391      3203  MEOH      LP1B           15.9214864102      -35.1629405122        9.3885951031  MEOH      2511            0.0000000000
     41392      3204  MEOH      C1             18.8614331574      -32.9914501105      -17.4625914523  MEOH      2512            0.0000000000
     41393      3204  MEOH      DC1            18.8395928185      -32.9842812148      -17.4556582765  MEOH      2512            0.0000000000
     41394      3204  MEOH      O1             18.7185075205      -32.2135596043      -16.2757067967  MEOH      2512            0.0000000000
     41395      3204  MEOH      DO1            18.6958255137      -32.2098900774      -16.2676102107  MEOH      2512            0.0000000000
     41396      3204  MEOH      HO1            19.0898556990      -31.3365669499      -16.4597839975  MEOH      2512            0.0000000000
     41397      3204  MEOH      HO2            17.8274524556      -32.3721580152      -15.9267549156  MEOH      2512            0.0000000000
     41398      3204  MEOH      H1A            18.7942332819      -34.0746260169      -17.2248202752  MEOH      2512            0.0000000000
     41399      3204  MEOH      H1B            19.8493510672      -32.7886645168      -17.9286571204  MEOH      2512            0.0000000000
     41400      3204  MEOH      H1C            18.0626880999      -32.7234652852      -18.1868230919  MEOH      2512            0.0000000000
     41401      3204  MEOH      LP1A           18.4093018475      -32.0495745111      -16.2765676143  MEOH      2512            0.0000000000
     41402      3204  MEOH      LP1B           18.9987617008      -32.2558903099      -16.0703638986  MEOH      2512            0.0000000000
     41403      3205  MEOH      C1             23.2970024791      -34.2241800221       -3.2369583763  MEOH      2513            0.0000000000
     41404      3205  MEOH      DC1            23.2945173918      -34.2284472005       -3.2452983530  MEOH      2513            0.0000000000
     41405      3205  MEOH      O1             22.8802203173      -35.3655221510       -3.9803868787  MEOH      2513            0.0000000000
     41406      3205  MEOH      DO1            22.8818386698      -35.3629855688       -3.9858524179  MEOH      2513            0.0000000000
     41407      3205  MEOH      HO1            22.0464385749      -35.1438258165       -4.4237363377  MEOH      2513            0.0000000000
     41408      3205  MEOH      HO2            23.6571300968      -35.6607497081       -4.4805387397  MEOH      2513            0.0000000000
     41409      3205  MEOH      H1A            24.1103513863      -34.4975800224       -2.5312410143  MEOH      2513            0.0000000000
     41410      3205  MEOH      H1B            22.4316138512      -33.8250122673       -2.6659166722  MEOH      2513            0.0000000000
     41411      3205  MEOH      H1C            23.6934596927      -33.4303873880       -3.9055658339  MEOH      2513            0.0000000000
     41412      3205  MEOH      LP1A           23.0175881514      -35.3555017600       -4.3021471465  MEOH      2513            0.0000000000
     41413      3205  MEOH      LP1B           22.6820868765      -35.5730965907       -3.7799972791  MEOH      2513            0.0000000000
     41414      3206  MEOH      C1              3.0529503580        2.6313180900      -35.8327397322  MEOH      2514            0.0000000000
     41415      3206  MEOH      DC1             3.0648028234        2.6229580578      -35.8138968932  MEOH      2514            0.0000000000
     41416      3206  MEOH      O1              3.2014411725        3.6753147015      -34.8666256223  MEOH      2514            0.0000000000
     41417      3206  MEOH      DO1             3.2067169721        3.6662348562      -34.8437408717  MEOH      2514            0.0000000000
     41418      3206  MEOH      HO1             2.3070415275        3.9509935136      -34.6117718063  MEOH      2514            0.0000000000
     41419      3206  MEOH      HO2             3.8653227412        3.3789101656      -34.2245153401  MEOH      2514            0.0000000000
     41420      3206  MEOH      H1A             4.0134905734        2.4746225321      -36.3685848559  MEOH      2514            0.0000000000
     41421      3206  MEOH      H1B             2.2792525731        2.9100562700      -36.5797456001  MEOH      2514            0.0000000000
     41422      3206  MEOH      H1C             2.7501308569        1.6870868858      -35.3316920464  MEOH      2514            0.0000000000
     41423      3206  MEOH      LP1A            3.2195120533        3.5389164215      -34.5448043171  MEOH      2514            0.0000000000
     41424      3206  MEOH      LP1B            3.2196461042        3.9856055845      -35.0275235663  MEOH      2514            0.0000000000
     41425      3207  MEOH      C1            -28.4173055012      -34.2376748458        2.1933535529  MEOH      2515            0.0000000000
     41426      3207  MEOH      DC1           -28.4038495099      -34.2307437496        2.1910824880  MEOH      2515            0.0000000000
     41427      3207  MEOH      O1            -28.7439250857      -35.2758071584        3.1106414374  MEOH      2515            0.0000000000
     41428      3207  MEOH      DO1           -28.7331265354      -35.2756267949        3.1060088614  MEOH      2515            0.0000000000
     41429      3207  MEOH      HO1           -29.6988748427      -35.4277418125        3.0339158062  MEOH      2515            0.0000000000
     41430      3207  MEOH      HO2           -28.1134016128      -35.9909257881        2.9319084037  MEOH      2515            0.0000000000
     41431      3207  MEOH      H1A           -27.3570553627      -33.9365599052        2.3330691151  MEOH      2515            0.0000000000
     41432      3207  MEOH      H1B           -29.0719275252      -33.3558135648        2.3610189559  MEOH      2515            0.0000000000
     41433      3207  MEOH      H1C           -28.5554438930      -34.5985354762        1.1517113926  MEOH      2515            0.0000000000
     41434      3207  MEOH      LP1A          -28.7113943672      -35.5876345623        2.9550605178  MEOH      2515            0.0000000000
     41435      3207  MEOH      LP1B          -28.8203857980      -35.1392542402        3.4237022302  MEOH      2515            0.0000000000
     41436      3208  MEOH      C1             19.9740690627        4.4317869215       31.2119934383  MEOH      2516            0.0000000000
     41437      3208  MEOH      DC1            19.9797624780        4.4343248695       31.2090899274  MEOH      2516            0.0000000000
     41438      3208  MEOH      O1             20.9557642372        3.5809195415       31.8112900766  MEOH      2516            0.0000000000
     41439      3208  MEOH      DO1            20.9554418601        3.5854506058       31.8100347721  MEOH      2516            0.0000000000
     41440      3208  MEOH      HO1            21.5293223559        3.2248999379       31.1147406335  MEOH      2516            0.0000000000
     41441      3208  MEOH      HO2            21.3330928592        4.0860911828       32.5483957162  MEOH      2516            0.0000000000
     41442      3208  MEOH      H1A            19.2038641636        4.7049218246       31.9646572003  MEOH      2516            0.0000000000
     41443      3208  MEOH      H1B            19.4761462470        3.9093661221       30.3673216807  MEOH      2516            0.0000000000
     41444      3208  MEOH      H1C            20.4514295389        5.3652986340       30.8445647248  MEOH      2516            0.0000000000
     41445      3208  MEOH      LP1A           21.2374917770        3.7680787627       31.9012957387  MEOH      2516            0.0000000000
     41446      3208  MEOH      LP1B           20.8338332850        3.2534947252       31.8319257885  MEOH      2516            0.0000000000
     41447      3209  MEOH      C1             14.1066148963      -16.1272166854       -2.1313050093  MEOH      2517            0.0000000000
     41448      3209  MEOH      DC1            14.1089844401      -16.1230794356       -2.1415900468  MEOH      2517            0.0000000000
     41449      3209  MEOH      O1             14.8350042922      -17.2966484430       -2.5199192559  MEOH      2517            0.0000000000
     41450      3209  MEOH      DO1            14.8571749208      -17.2814689188       -2.5330045186  MEOH      2517            0.0000000000
     41451      3209  MEOH      HO1            14.4214393151      -17.6946266077       -3.3018894536  MEOH      2517            0.0000000000
     41452      3209  MEOH      HO2            15.7811957929      -17.1105416531       -2.4151055763  MEOH      2517            0.0000000000
     41453      3209  MEOH      H1A            14.2745673465      -15.9270631744       -1.0514663421  MEOH      2517            0.0000000000
     41454      3209  MEOH      H1B            13.0157544086      -16.2756627889       -2.2806641426  MEOH      2517            0.0000000000
     41455      3209  MEOH      H1C            14.4534405752      -15.2500895034       -2.7184002798  MEOH      2517            0.0000000000
     41456      3209  MEOH      LP1A           15.0906873194      -17.2099142850       -2.7426374083  MEOH      2517            0.0000000000
     41457      3209  MEOH      LP1B           14.7084339420      -17.5773239130       -2.3534824000  MEOH      2517            0.0000000000
     41458      3210  MEOH      C1            -14.0353647054      -30.6156962086       33.0929633869  MEOH      2518            0.0000000000
     41459      3210  MEOH      DC1           -14.0322720526      -30.6138385927       33.0943377218  MEOH      2518            0.0000000000
     41460      3210  MEOH      O1            -13.5355596101      -29.5677360355       32.2533175837  MEOH      2518            0.0000000000
     41461      3210  MEOH      DO1           -13.5268816034      -29.5632248752       32.2495217563  MEOH      2518            0.0000000000
     41462      3210  MEOH      HO1           -14.1800865372      -28.8440577839       32.2954463099  MEOH      2518            0.0000000000
     41463      3210  MEOH      HO2           -12.6091548130      -29.4283667238       32.5048137999  MEOH      2518            0.0000000000
     41464      3210  MEOH      H1A           -13.3959851709      -31.5199310630       33.0042270330  MEOH      2518            0.0000000000
     41465      3210  MEOH      H1B           -15.0859344577      -30.8611181802       32.8276480049  MEOH      2518            0.0000000000
     41466      3210  MEOH      H1C           -14.0083838739      -30.3194948031       34.1634108457  MEOH      2518            0.0000000000
     41467      3210  MEOH      LP1A          -13.3281590654      -29.3548686815       32.4381756473  MEOH      2518            0.0000000000
     41468      3210  MEOH      LP1B          -13.6502746318      -29.6119147465       31.9256154243  MEOH      2518            0.0000000000
     41469      3211  MEOH      C1             -3.6225839715       18.3256298003      -21.3412465547  MEOH      2519            0.0000000000
     41470      3211  MEOH      DC1            -3.6169962124       18.3269020951      -21.3383226359  MEOH      2519            0.0000000000
     41471      3211  MEOH      O1             -2.4612618674       18.9620528675      -21.8588813540  MEOH      2519            0.0000000000
     41472      3211  MEOH      DO1            -2.4423453190       18.9587734296      -21.8580739382  MEOH      2519            0.0000000000
     41473      3211  MEOH      HO1            -2.2075911306       19.6171493375      -21.1900018630  MEOH      2519            0.0000000000
     41474      3211  MEOH      HO2            -1.8632141883       18.2463944095      -22.1254745744  MEOH      2519            0.0000000000
     41475      3211  MEOH      H1A            -3.9596834512       17.5319309659      -22.0417657213  MEOH      2519            0.0000000000
     41476      3211  MEOH      H1B            -4.4390169126       19.0681475289      -21.2130838608  MEOH      2519            0.0000000000
     41477      3211  MEOH      H1C            -3.3904736575       17.8421206182      -20.3682796113  MEOH      2519            0.0000000000
     41478      3211  MEOH      LP1A           -2.1746548639       18.7877837317      -21.7589479067  MEOH      2519            0.0000000000
     41479      3211  MEOH      LP1B           -2.5528606673       19.2368556227      -22.0553326345  MEOH      2519            0.0000000000
     41480      3212  MEOH      C1             17.1927853329       28.1138761281        0.7231087691  MEOH      2520            0.0000000000
     41481      3212  MEOH      DC1            17.2318088376       28.0938266238        0.7061800449  MEOH      2520            0.0000000000
     41482      3212  MEOH      O1             18.1477651364       27.6499654744       -0.2348007020  MEOH      2520            0.0000000000
     41483      3212  MEOH      DO1            18.1778972094       27.6504580937       -0.2503423569  MEOH      2520            0.0000000000
     41484      3212  MEOH      HO1            18.1574953288       26.6854425211       -0.1323273113  MEOH      2520            0.0000000000
     41485      3212  MEOH      HO2            17.8673643990       28.0390755477       -1.0779310465  MEOH      2520            0.0000000000
     41486      3212  MEOH      H1A            17.1212662930       29.2222075611        0.6946929022  MEOH      2520            0.0000000000
     41487      3212  MEOH      H1B            17.4922790965       27.7998847193        1.7458667479  MEOH      2520            0.0000000000
     41488      3212  MEOH      H1C            16.1837556471       27.6979914439        0.5152145088  MEOH      2520            0.0000000000
     41489      3212  MEOH      LP1A           17.9902582720       27.5902355607       -0.5415969292  MEOH      2520            0.0000000000
     41490      3212  MEOH      LP1B           18.4670938962       27.6428443542       -0.0916978271  MEOH      2520            0.0000000000
     41491      3213  MEOH      C1              1.9342371324       22.1772124005       28.7161829861  MEOH      2521            0.0000000000
     41492      3213  MEOH      DC1             1.9303564922       22.1920742184       28.7243569059  MEOH      2521            0.0000000000
     41493      3213  MEOH      O1              2.3594850864       20.8505395358       28.4140426718  MEOH      2521            0.0000000000
     41494      3213  MEOH      DO1             2.3629992087       20.8584385192       28.4213278855  MEOH      2521            0.0000000000
     41495      3213  MEOH      HO1             3.0644729835       20.6003356015       29.0315295598  MEOH      2521            0.0000000000
     41496      3213  MEOH      HO2             1.5488632446       20.3241358839       28.3322415414  MEOH      2521            0.0000000000
     41497      3213  MEOH      H1A             1.1660999367       22.4875785323       27.9759403808  MEOH      2521            0.0000000000
     41498      3213  MEOH      H1B             2.8028481020       22.8668790924       28.6514076961  MEOH      2521            0.0000000000
     41499      3213  MEOH      H1C             1.4778670706       22.2119684700       29.7285264961  MEOH      2521            0.0000000000
     41500      3213  MEOH      LP1A            2.1666099530       20.6194215289       28.5926026053  MEOH      2521            0.0000000000
     41501      3213  MEOH      LP1B            2.6161304268       20.8583437757       28.1761934274  MEOH      2521            0.0000000000
     41502      3214  MEOH      C1            -11.4924667835       -0.8624359626        3.9282833480  MEOH      2522            0.0000000000
     41503      3214  MEOH      DC1           -11.4995830321       -0.8528208103        3.9263521149  MEOH      2522            0.0000000000
     41504      3214  MEOH      O1            -12.5074489448       -1.4622086875        4.7236770781  MEOH      2522            0.0000000000
     41505      3214  MEOH      DO1           -12.5182549596       -1.4603950007        4.7109939405  MEOH      2522            0.0000000000
     41506      3214  MEOH      HO1           -12.5916941188       -2.3746783506        4.4055546731  MEOH      2522            0.0000000000
     41507      3214  MEOH      HO2           -12.2108174033       -1.3319872727        5.6379812472  MEOH      2522            0.0000000000
     41508      3214  MEOH      H1A           -11.2353982337        0.1404601644        4.3313169958  MEOH      2522            0.0000000000
     41509      3214  MEOH      H1B           -11.8331850325       -0.7515841456        2.8766446505  MEOH      2522            0.0000000000
     41510      3214  MEOH      H1C           -10.5805990629       -1.4963397664        3.9596557492  MEOH      2522            0.0000000000
     41511      3214  MEOH      LP1A          -12.3662656390       -1.6044470858        5.0106187311  MEOH      2522            0.0000000000
     41512      3214  MEOH      LP1B          -12.8208075517       -1.4110918202        4.5763901153  MEOH      2522            0.0000000000
     41513      3215  MEOH      C1             15.1175080353        1.4194071461       -1.5054835335  MEOH      2523            0.0000000000
     41514      3215  MEOH      DC1            15.1193645647        1.4009810975       -1.5019216982  MEOH      2523            0.0000000000
     41515      3215  MEOH      O1             13.8128959080        1.2499540778       -2.0628712482  MEOH      2523            0.0000000000
     41516      3215  MEOH      DO1            13.8156296598        1.2265818815       -2.0566171560  MEOH      2523            0.0000000000
     41517      3215  MEOH      HO1            13.1738242108        1.3239907059       -1.3369194978  MEOH      2523            0.0000000000
     41518      3215  MEOH      HO2            13.7613496958        1.9183166300       -2.7639664535  MEOH      2523            0.0000000000
     41519      3215  MEOH      H1A            15.8596607446        1.4727920502       -2.3305171135  MEOH      2523            0.0000000000
     41520      3215  MEOH      H1B            15.3729408387        0.5673179531       -0.8398867399  MEOH      2523            0.0000000000
     41521      3215  MEOH      H1C            15.1662354206        2.3696370253       -0.9318897582  MEOH      2523            0.0000000000
     41522      3215  MEOH      LP1A           13.6855682401        1.5593139427       -2.1657504928  MEOH      2523            0.0000000000
     41523      3215  MEOH      LP1B           13.7262422190        0.9108519456       -2.0638104831  MEOH      2523            0.0000000000
     41524      3216  MEOH      C1              9.5657457347      -19.9457722885       35.9331514877  MEOH      2524            0.0000000000
     41525      3216  MEOH      DC1             9.5823070256      -19.9592799590       35.9654669925  MEOH      2524            0.0000000000
     41526      3216  MEOH      O1              9.7759366267      -20.5604390984       37.2004016269  MEOH      2524            0.0000000000
     41527      3216  MEOH      DO1             9.7725156959      -20.5711589267       37.2301016216  MEOH      2524            0.0000000000
     41528      3216  MEOH      HO1             8.9784541533      -21.0971275554       37.3303524051  MEOH      2524            0.0000000000
     41529      3216  MEOH      HO2            10.6424046566      -20.9914572718       37.1343979287  MEOH      2524            0.0000000000
     41530      3216  MEOH      H1A            10.4521407481      -19.3484599875       35.6300955601  MEOH      2524            0.0000000000
     41531      3216  MEOH      H1B             8.6762864692      -19.2818827715       35.9824863266  MEOH      2524            0.0000000000
     41532      3216  MEOH      H1C             9.3893634113      -20.7243778009       35.1605042636  MEOH      2524            0.0000000000
     41533      3216  MEOH      LP1A            9.9457429556      -20.8637602321       37.1596327601  MEOH      2524            0.0000000000
     41534      3216  MEOH      LP1B            9.6515949911      -20.3551266184       37.4551288206  MEOH      2524            0.0000000000
     41535      3217  MEOH      C1            -15.8188283120       -6.9026503372       24.2440068922  MEOH      2525            0.0000000000
     41536      3217  MEOH      DC1           -15.8081526063       -6.9225447337       24.2458453716  MEOH      2525            0.0000000000
     41537      3217  MEOH      O1            -15.6023815966       -7.5198183394       22.9689960554  MEOH      2525            0.0000000000
     41538      3217  MEOH      DO1           -15.5923730851       -7.5408498699       22.9673632873  MEOH      2525            0.0000000000
     41539      3217  MEOH      HO1           -15.9444183836       -6.8764215512       22.3287215754  MEOH      2525            0.0000000000
     41540      3217  MEOH      HO2           -14.6701695098       -7.7870171890       22.9469642617  MEOH      2525            0.0000000000
     41541      3217  MEOH      H1A           -15.5007445933       -7.5892878070       25.0574395771  MEOH      2525            0.0000000000
     41542      3217  MEOH      H1B           -16.8956182956       -6.6587424306       24.3679151875  MEOH      2525            0.0000000000
     41543      3217  MEOH      H1C           -15.2302786494       -5.9638411715       24.3250479030  MEOH      2525            0.0000000000
     41544      3217  MEOH      LP1A          -15.2851228402       -7.4355815711       22.8475421616  MEOH      2525            0.0000000000
     41545      3217  MEOH      LP1B          -15.8788538012       -7.7162975583       22.8826303408  MEOH      2525            0.0000000000
     41546      3218  MEOH      C1             29.5689194356       30.6214721634       36.4940866438  MEOH      2526            0.0000000000
     41547      3218  MEOH      DC1            29.5606696421       30.6269324107       36.5090293725  MEOH      2526            0.0000000000
     41548      3218  MEOH      O1             29.8697743060       29.3722518670       37.1211494384  MEOH      2526            0.0000000000
     41549      3218  MEOH      DO1            29.8644478547       29.3838081920       37.1568147570  MEOH      2526            0.0000000000
     41550      3218  MEOH      HO1            29.0628830429       28.8371906118       37.0616856394  MEOH      2526            0.0000000000
     41551      3218  MEOH      HO2            30.6392605749       29.0392414163       36.6334047082  MEOH      2526            0.0000000000
     41552      3218  MEOH      H1A            30.5148195833       31.0981442629       36.1588589286  MEOH      2526            0.0000000000
     41553      3218  MEOH      H1B            29.0365637573       31.2809937525       37.2123830348  MEOH      2526            0.0000000000
     41554      3218  MEOH      H1C            28.9342354167       30.5013082685       35.5901741279  MEOH      2526            0.0000000000
     41555      3218  MEOH      LP1A           30.0015056284       29.1489462651       36.8860293268  MEOH      2526            0.0000000000
     41556      3218  MEOH      LP1B           29.7990727102       29.3900484409       37.4634717519  MEOH      2526            0.0000000000
     41557      3219  MEOH      C1            -22.9234761708       20.9984966667      -17.7725184253  MEOH      2527            0.0000000000
     41558      3219  MEOH      DC1           -22.9193059593       20.9962019927      -17.7811151843  MEOH      2527            0.0000000000
     41559      3219  MEOH      O1            -22.3295593396       22.0432174710      -18.5402525365  MEOH      2527            0.0000000000
     41560      3219  MEOH      DO1           -22.3264587490       22.0431911069      -18.5457984547  MEOH      2527            0.0000000000
     41561      3219  MEOH      HO1           -22.8448715625       22.8422235926      -18.3480481357  MEOH      2527            0.0000000000
     41562      3219  MEOH      HO2           -21.3820918032       22.0108948905      -18.3349222703  MEOH      2527            0.0000000000
     41563      3219  MEOH      H1A           -22.4195581584       20.0336183423      -17.9947738149  MEOH      2527            0.0000000000
     41564      3219  MEOH      H1B           -23.9905532611       20.8838800824      -18.0597996859  MEOH      2527            0.0000000000
     41565      3219  MEOH      H1C           -22.8525174454       21.2240718282      -16.6869763000  MEOH      2527            0.0000000000
     41566      3219  MEOH      LP1A          -22.0744871937       22.1968098158      -18.3562753857  MEOH      2527            0.0000000000
     41567      3219  MEOH      LP1B          -22.4772058143       22.0575939257      -18.8572601643  MEOH      2527            0.0000000000
     41568      3220  MEOH      C1             12.3408701024      -10.2936296564       -0.7037667930  MEOH      2528            0.0000000000
     41569      3220  MEOH      DC1            12.3550799864      -10.2772900096       -0.7017420315  MEOH      2528            0.0000000000
     41570      3220  MEOH      O1             13.3276736912      -11.2960236711       -0.9654601725  MEOH      2528            0.0000000000
     41571      3220  MEOH      DO1            13.3436537241      -11.2854714341       -0.9671774194  MEOH      2528            0.0000000000
     41572      3220  MEOH      HO1            13.1565444677      -12.0092021290       -0.3306442337  MEOH      2528            0.0000000000
     41573      3220  MEOH      HO2            13.2385569902      -11.4943889308       -1.9107693488  MEOH      2528            0.0000000000
     41574      3220  MEOH      H1A            12.4408390246       -9.4669474730       -1.4392420018  MEOH      2528            0.0000000000
     41575      3220  MEOH      H1B            12.4447893078       -9.8956536556        0.3282879060  MEOH      2528            0.0000000000
     41576      3220  MEOH      H1C            11.3247628849      -10.7267262303       -0.8232426564  MEOH      2528            0.0000000000
     41577      3220  MEOH      LP1A           13.2096728471      -11.5199418793       -1.2071964686  MEOH      2528            0.0000000000
     41578      3220  MEOH      LP1B           13.6151595984      -11.2333535881       -0.7759230684  MEOH      2528            0.0000000000
     41579      3221  MEOH      C1             17.4237298263       32.8073746282      -29.0948840308  MEOH      2529            0.0000000000
     41580      3221  MEOH      DC1            17.4219582320       32.8140746913      -29.1068350849  MEOH      2529            0.0000000000
     41581      3221  MEOH      O1             17.1797796386       33.0431154610      -30.4829413640  MEOH      2529            0.0000000000
     41582      3221  MEOH      DO1            17.1751171787       33.0360232933      -30.4937942754  MEOH      2529            0.0000000000
     41583      3221  MEOH      HO1            17.9455591555       32.6913580082      -30.9633041717  MEOH      2529            0.0000000000
     41584      3221  MEOH      HO2            16.2831400038       32.7167899668      -30.6574378885  MEOH      2529            0.0000000000
     41585      3221  MEOH      H1A            16.6601700214       33.3305491533      -28.4804038914  MEOH      2529            0.0000000000
     41586      3221  MEOH      H1B            18.4315735134       33.1801598232      -28.8127434603  MEOH      2529            0.0000000000
     41587      3221  MEOH      H1C            17.3625604881       31.7187179817      -28.8817971516  MEOH      2529            0.0000000000
     41588      3221  MEOH      LP1A           17.0053707866       32.7730853199      -30.6213800697  MEOH      2529            0.0000000000
     41589      3221  MEOH      LP1B           17.3032692877       33.3575553518      -30.5744720239  MEOH      2529            0.0000000000
     41590      3222  MEOH      C1            -35.2212506442      -18.5763212936       29.5367166849  MEOH      2530            0.0000000000
     41591      3222  MEOH      DC1           -35.2306573283      -18.5730779842       29.5342340118  MEOH      2530            0.0000000000
     41592      3222  MEOH      O1            -33.8263241820      -18.3576770678       29.7658671526  MEOH      2530            0.0000000000
     41593      3222  MEOH      DO1           -33.8375993745      -18.3490022948       29.7543149984  MEOH      2530            0.0000000000
     41594      3222  MEOH      HO1           -33.3128448528      -19.0179819591       29.2747089002  MEOH      2530            0.0000000000
     41595      3222  MEOH      HO2           -33.6691020845      -17.4076106392       29.6494412347  MEOH      2530            0.0000000000
     41596      3222  MEOH      H1A           -35.8021054546      -17.9014528534       30.2011572604  MEOH      2530            0.0000000000
     41597      3222  MEOH      H1B           -35.4902655053      -19.6307946444       29.7604083410  MEOH      2530            0.0000000000
     41598      3222  MEOH      H1C           -35.4836717522      -18.3386301310       28.4836454265  MEOH      2530            0.0000000000
     41599      3222  MEOH      LP1A          -33.6998135564      -18.1332989207       29.5289082770  MEOH      2530            0.0000000000
     41600      3222  MEOH      LP1B          -33.7218758414      -18.5365630016       30.0479847998  MEOH      2530            0.0000000000
     41601      3223  MEOH      C1             18.4965381651       13.3678828918       -1.9097837060  MEOH      2531            0.0000000000
     41602      3223  MEOH      DC1            18.5073807730       13.3435377663       -1.9172162556  MEOH      2531            0.0000000000
     41603      3223  MEOH      O1             18.9915724248       14.0766364077       -0.7725955796  MEOH      2531            0.0000000000
     41604      3223  MEOH      DO1            19.0060655619       14.0558734584       -0.7729756852  MEOH      2531            0.0000000000
     41605      3223  MEOH      HO1            19.4102348416       13.4558220528       -0.1559828020  MEOH      2531            0.0000000000
     41606      3223  MEOH      HO2            19.4723055400       14.8436334265       -1.1211802130  MEOH      2531            0.0000000000
     41607      3223  MEOH      H1A            17.9877661699       14.0816164782       -2.5924669605  MEOH      2531            0.0000000000
     41608      3223  MEOH      H1B            17.7546565968       12.6060356209       -1.5880361736  MEOH      2531            0.0000000000
     41609      3223  MEOH      H1C            19.3233342558       12.8865959956       -2.4746661256  MEOH      2531            0.0000000000
     41610      3223  MEOH      LP1A           19.3193713832       14.1840404561       -0.8318595081  MEOH      2531            0.0000000000
     41611      3223  MEOH      LP1B           18.7429051054       14.0978720591       -0.5272109603  MEOH      2531            0.0000000000
     41612      3224  MEOH      C1            -34.1450128652       28.7186199851      -27.9786457551  MEOH      2532            0.0000000000
     41613      3224  MEOH      DC1           -34.1383913374       28.7161128978      -27.9763850292  MEOH      2532            0.0000000000
     41614      3224  MEOH      O1            -34.8925700738       28.2173391636      -26.8661062718  MEOH      2532            0.0000000000
     41615      3224  MEOH      DO1           -34.8837939678       28.2091604458      -26.8662492892  MEOH      2532            0.0000000000
     41616      3224  MEOH      HO1           -35.8098666426       28.1064253825      -27.1613436985  MEOH      2532            0.0000000000
     41617      3224  MEOH      HO2           -34.3942947187       27.4590793822      -26.5230847329  MEOH      2532            0.0000000000
     41618      3224  MEOH      H1A           -33.1219359406       28.9969244524      -27.6467101731  MEOH      2532            0.0000000000
     41619      3224  MEOH      H1B           -34.6435695616       29.6161827876      -28.4030785957  MEOH      2532            0.0000000000
     41620      3224  MEOH      H1C           -34.0692264335       27.9388471974      -28.7663841750  MEOH      2532            0.0000000000
     41621      3224  MEOH      LP1A          -34.8830117818       27.8674806089      -26.8633438845  MEOH      2532            0.0000000000
     41622      3224  MEOH      LP1B          -35.0176929365       28.4834550201      -26.6762994749  MEOH      2532            0.0000000000
     41623      3225  MEOH      C1             29.9336661988       26.6340647223      -30.3552643152  MEOH      2533            0.0000000000
     41624      3225  MEOH      DC1            29.9306660130       26.6289221255      -30.3522623646  MEOH      2533            0.0000000000
     41625      3225  MEOH      O1             29.9314334387       27.7963316075      -29.5257922961  MEOH      2533            0.0000000000
     41626      3225  MEOH      DO1            29.9301233013       27.7986642263      -29.5252529305  MEOH      2533            0.0000000000
     41627      3225  MEOH      HO1            29.7508510150       27.5000572145      -28.6199714126  MEOH      2533            0.0000000000
     41628      3225  MEOH      HO2            30.7652590562       28.2507534668      -29.7236195270  MEOH      2533            0.0000000000
     41629      3225  MEOH      H1A            30.0940110889       26.9197305565      -31.4168694911  MEOH      2533            0.0000000000
     41630      3225  MEOH      H1B            28.9596058651       26.1063573166      -30.2712859794  MEOH      2533            0.0000000000
     41631      3225  MEOH      H1C            30.7591340874       25.9592140491      -30.0430138811  MEOH      2533            0.0000000000
     41632      3225  MEOH      LP1A           30.2549362297       27.8603353857      -29.4085342024  MEOH      2533            0.0000000000
     41633      3225  MEOH      LP1B           29.6097868702       27.9337483190      -29.5131379540  MEOH      2533            0.0000000000
     41634      3226  MEOH      C1            -35.9281182155       29.5839925513       33.2018669398  MEOH      2534            0.0000000000
     41635      3226  MEOH      DC1           -35.9182719561       29.5907734065       33.1977726711  MEOH      2534            0.0000000000
     41636      3226  MEOH      O1            -35.4834071706       30.8385217566       32.6902893531  MEOH      2534            0.0000000000
     41637      3226  MEOH      DO1           -35.4732386248       30.8433352870       32.6872372549  MEOH      2534            0.0000000000
     41638      3226  MEOH      HO1           -35.5104453918       31.4596973610       33.4348092008  MEOH      2534            0.0000000000
     41639      3226  MEOH      HO2           -34.6519324450       30.6544041182       32.2259075317  MEOH      2534            0.0000000000
     41640      3226  MEOH      H1A           -36.0257634395       28.8538103074       32.3702298185  MEOH      2534            0.0000000000
     41641      3226  MEOH      H1B           -36.9156135852       29.6876138643       33.7003010060  MEOH      2534            0.0000000000
     41642      3226  MEOH      H1C           -35.1899212705       29.2056254681       33.9409370465  MEOH      2534            0.0000000000
     41643      3226  MEOH      LP1A          -35.1354374336       30.8629240558       32.7189527431  MEOH      2534            0.0000000000
     41644      3226  MEOH      LP1B          -35.7553357904       31.0200348105       32.5653580240  MEOH      2534            0.0000000000
     41645      3227  MEOH      C1             18.3452050477       30.9984087710        3.1508491977  MEOH      2535            0.0000000000
     41646      3227  MEOH      DC1            18.3642755032       30.9980644930        3.1561598349  MEOH      2535            0.0000000000
     41647      3227  MEOH      O1             17.4557705554       29.8871591531        3.2609674972  MEOH      2535            0.0000000000
     41648      3227  MEOH      DO1            17.4891553092       29.8759840512        3.2690909950  MEOH      2535            0.0000000000
     41649      3227  MEOH      HO1            17.3999283990       29.6094185893        4.1886753352  MEOH      2535            0.0000000000
     41650      3227  MEOH      HO2            16.6364955804       30.1791260207        2.8314982141  MEOH      2535            0.0000000000
     41651      3227  MEOH      H1A            18.3397949311       31.3557545321        2.0989006544  MEOH      2535            0.0000000000
     41652      3227  MEOH      H1B            19.3769489728       30.6939856659        3.4286117729  MEOH      2535            0.0000000000
     41653      3227  MEOH      H1C            18.0008973590       31.8266277938        3.8064607187  MEOH      2535            0.0000000000
     41654      3227  MEOH      LP1A           17.1284020202       30.0003638910        3.3111125818  MEOH      2535            0.0000000000
     41655      3227  MEOH      LP1B           17.6321584629       29.5879307393        3.2179597954  MEOH      2535            0.0000000000
     41656      3228  MEOH      C1             29.8815335408       -0.4576220076      -29.4465189887  MEOH      2536            0.0000000000
     41657      3228  MEOH      DC1            29.8831886483       -0.4599037758      -29.4393104685  MEOH      2536            0.0000000000
     41658      3228  MEOH      O1             29.3087579973       -1.5146481252      -30.2068962370  MEOH      2536            0.0000000000
     41659      3228  MEOH      DO1            29.3110044091       -1.5212428115      -30.1930523204  MEOH      2536            0.0000000000
     41660      3228  MEOH      HO1            28.9726683359       -1.1338978468      -31.0333180217  MEOH      2536            0.0000000000
     41661      3228  MEOH      HO2            29.9819794274       -2.2125266906      -30.2321630917  MEOH      2536            0.0000000000
     41662      3228  MEOH      H1A            30.2851819152       -0.8582292251      -28.4921066838  MEOH      2536            0.0000000000
     41663      3228  MEOH      H1B            29.0985875485        0.2931856337      -29.2065096993  MEOH      2536            0.0000000000
     41664      3228  MEOH      H1C            30.7017131019        0.0251690085      -30.0197024858  MEOH      2536            0.0000000000
     41665      3228  MEOH      LP1A           29.5527867707       -1.6617910696      -30.4101175736  MEOH      2536            0.0000000000
     41666      3228  MEOH      LP1B           28.9710323444       -1.5528497204      -30.1233377457  MEOH      2536            0.0000000000
     41667      3229  MEOH      C1            -36.6320607640       13.7553464980      -29.5013777753  MEOH      2537            0.0000000000
     41668      3229  MEOH      DC1           -36.6387385665       13.7495752836      -29.4930203217  MEOH      2537            0.0000000000
     41669      3229  MEOH      O1            -36.5234766454       14.3480090394      -28.2054060152  MEOH      2537            0.0000000000
     41670      3229  MEOH      DO1           -36.5153941420       14.3428765622      -28.1984500601  MEOH      2537            0.0000000000
     41671      3229  MEOH      HO1           -35.9393776008       15.1147772876      -28.3140097007  MEOH      2537            0.0000000000
     41672      3229  MEOH      HO2           -37.4348802393       14.4850849193      -27.9029929001  MEOH      2537            0.0000000000
     41673      3229  MEOH      H1A           -37.3528123567       12.9104972310      -29.4686996470  MEOH      2537            0.0000000000
     41674      3229  MEOH      H1B           -35.6448093111       13.3781150692      -29.8439445840  MEOH      2537            0.0000000000
     41675      3229  MEOH      H1C           -36.9801844045       14.5161157872      -30.2323777887  MEOH      2537            0.0000000000
     41676      3229  MEOH      LP1A          -36.7786678222       14.5831102233      -28.1595268633  MEOH      2537            0.0000000000
     41677      3229  MEOH      LP1B          -36.2570328748       14.2041045845      -28.0299089355  MEOH      2537            0.0000000000
     41678      3230  MEOH      C1            -29.7593726015       13.0641108912       32.1009391650  MEOH      2538            0.0000000000
     41679      3230  MEOH      DC1           -29.7656045253       13.0726781174       32.0947923125  MEOH      2538            0.0000000000
     41680      3230  MEOH      O1            -29.3191916251       14.0814319784       31.1969103663  MEOH      2538            0.0000000000
     41681      3230  MEOH      DO1           -29.3339673480       14.0903343111       31.1906952765  MEOH      2538            0.0000000000
     41682      3230  MEOH      HO1           -29.2137646698       14.8916995200       31.7196451635  MEOH      2538            0.0000000000
     41683      3230  MEOH      HO2           -28.5338902776       13.7107065300       30.7647478546  MEOH      2538            0.0000000000
     41684      3230  MEOH      H1A           -29.8349111693       12.0932382861       31.5661295621  MEOH      2538            0.0000000000
     41685      3230  MEOH      H1B           -30.7572569722       13.3222667963       32.5155514079  MEOH      2538            0.0000000000
     41686      3230  MEOH      H1C           -29.0323043937       12.9513390167       32.9333905602  MEOH      2538            0.0000000000
     41687      3230  MEOH      LP1A          -28.9696695711       14.0822779279       31.1786451500  MEOH      2538            0.0000000000
     41688      3230  MEOH      LP1B          -29.5952809998       14.2432992047       31.0552288282  MEOH      2538            0.0000000000
     41689      3231  MEOH      C1            -24.9651508952       31.4536791553      -33.4941011596  MEOH      2539            0.0000000000
     41690      3231  MEOH      DC1           -24.9604033531       31.4447038467      -33.4936181511  MEOH      2539            0.0000000000
     41691      3231  MEOH      O1            -25.7687896069       31.7615079279      -32.3543704952  MEOH      2539            0.0000000000
     41692      3231  MEOH      DO1           -25.7672382552       31.7544518970      -32.3519011295  MEOH      2539            0.0000000000
     41693      3231  MEOH      HO1           -26.3323647253       30.9928689729      -32.1741560595  MEOH      2539            0.0000000000
     41694      3231  MEOH      HO2           -25.1598063278       32.0972657595      -31.6781264232  MEOH      2539            0.0000000000
     41695      3231  MEOH      H1A           -24.4035617494       32.3608236940      -33.8039840705  MEOH      2539            0.0000000000
     41696      3231  MEOH      H1B           -25.6114144694       31.1261389150      -34.3363492139  MEOH      2539            0.0000000000
     41697      3231  MEOH      H1C           -24.2453084754       30.6454555135      -33.2432577127  MEOH      2539            0.0000000000
     41698      3231  MEOH      LP1A          -25.6015406425       31.6685005556      -32.0613220136  MEOH      2539            0.0000000000
     41699      3231  MEOH      LP1B          -26.0658233378       31.9164607572      -32.4556650331  MEOH      2539            0.0000000000
     41700      3232  MEOH      C1             15.5368291543       18.4806099978      -29.1588439842  MEOH      2540            0.0000000000
     41701      3232  MEOH      DC1            15.5386378988       18.4988926680      -29.1542128123  MEOH      2540            0.0000000000
     41702      3232  MEOH      O1             15.7548451504       17.9120082849      -27.8653019001  MEOH      2540            0.0000000000
     41703      3232  MEOH      DO1            15.7495817561       17.9296691429      -27.8608583942  MEOH      2540            0.0000000000
     41704      3232  MEOH      HO1            16.6495719712       17.5402580466      -27.8187650557  MEOH      2540            0.0000000000
     41705      3232  MEOH      HO2            15.3955436397       18.5239254587      -27.2039700644  MEOH      2540            0.0000000000
     41706      3232  MEOH      H1A            14.4458475801       18.5194169858      -29.3651792030  MEOH      2540            0.0000000000
     41707      3232  MEOH      H1B            16.0182007249       17.8555859569      -29.9411146285  MEOH      2540            0.0000000000
     41708      3232  MEOH      H1C            15.9588084925       19.5075440158      -29.1995988792  MEOH      2540            0.0000000000
     41709      3232  MEOH      LP1A           15.8822114440       18.1547925346      -27.6477389542  MEOH      2540            0.0000000000
     41710      3232  MEOH      LP1B           15.6533676139       17.5770492101      -27.8631275618  MEOH      2540            0.0000000000
     41711      3233  MEOH      C1             -7.6997268465       29.0833425929      -10.5845556900  MEOH      2541            0.0000000000
     41712      3233  MEOH      DC1            -7.6933166315       29.0900867089      -10.5889073757  MEOH      2541            0.0000000000
     41713      3233  MEOH      O1             -7.0540865631       30.2565662083      -11.0742023430  MEOH      2541            0.0000000000
     41714      3233  MEOH      DO1            -7.0498677682       30.2646837543      -11.0772898651  MEOH      2541            0.0000000000
     41715      3233  MEOH      HO1            -7.7459865573       30.8354349988      -11.4306926280  MEOH      2541            0.0000000000
     41716      3233  MEOH      HO2            -6.4642377786       30.5524688761      -10.3632733574  MEOH      2541            0.0000000000
     41717      3233  MEOH      H1A            -6.9373099439       28.3336981878      -10.2827697811  MEOH      2541            0.0000000000
     41718      3233  MEOH      H1B            -8.3404450299       28.6431614729      -11.3783074091  MEOH      2541            0.0000000000
     41719      3233  MEOH      H1C            -8.3292768184       29.3347202171       -9.7043300809  MEOH      2541            0.0000000000
     41720      3233  MEOH      LP1A           -7.0283331726       30.4944747421      -10.8187883802  MEOH      2541            0.0000000000
     41721      3233  MEOH      LP1B           -6.9612625321       30.2113928447      -11.4086318072  MEOH      2541            0.0000000000
     41722      3234  MEOH      C1            -31.0040747990       35.7464143649      -11.5087039109  MEOH      2542            0.0000000000
     41723      3234  MEOH      DC1           -31.0038953604       35.7489004942      -11.5020121771  MEOH      2542            0.0000000000
     41724      3234  MEOH      O1            -32.3416856794       35.6210191936      -11.9786804309  MEOH      2542            0.0000000000
     41725      3234  MEOH      DO1           -32.3462789369       35.6240637873      -11.9681522080  MEOH      2542            0.0000000000
     41726      3234  MEOH      HO1           -32.7993413797       35.0069775440      -11.3833619337  MEOH      2542            0.0000000000
     41727      3234  MEOH      HO2           -32.6603481770       36.5273820357      -12.1123240283  MEOH      2542            0.0000000000
     41728      3234  MEOH      H1A           -30.4019397242       36.2991540305      -12.2611886045  MEOH      2542            0.0000000000
     41729      3234  MEOH      H1B           -30.5778919581       34.7302438799      -11.3669762445  MEOH      2542            0.0000000000
     41730      3234  MEOH      H1C           -30.9758352517       36.2946557282      -10.5428079866  MEOH      2542            0.0000000000
     41731      3234  MEOH      LP1A          -32.5436163153       35.8663646955      -11.8319507373  MEOH      2542            0.0000000000
     41732      3234  MEOH      LP1B          -32.3624324241       35.3618763792      -12.2130190200  MEOH      2542            0.0000000000
     41733      3235  MEOH      C1            -25.7216761072        4.6556650970       36.8120128389  MEOH      2543            0.0000000000
     41734      3235  MEOH      DC1           -25.7437480094        4.6627655618       36.8081111625  MEOH      2543            0.0000000000
     41735      3235  MEOH      O1            -24.8007915779        3.7355442466       36.2318361966  MEOH      2543            0.0000000000
     41736      3235  MEOH      DO1           -24.8191313037        3.7469527642       36.2225646346  MEOH      2543            0.0000000000
     41737      3235  MEOH      HO1           -25.2756419859        3.0084350795       35.7997142813  MEOH      2543            0.0000000000
     41738      3235  MEOH      HO2           -24.1430218341        4.2664290944       35.7560208517  MEOH      2543            0.0000000000
     41739      3235  MEOH      H1A           -25.1647972094        5.3065354284       37.5195258824  MEOH      2543            0.0000000000
     41740      3235  MEOH      H1B           -26.5052898840        4.1034122891       37.3735173228  MEOH      2543            0.0000000000
     41741      3235  MEOH      H1C           -26.1815710318        5.2867229564       36.0217067991  MEOH      2543            0.0000000000
     41742      3235  MEOH      LP1A          -24.7252197529        3.8324064033       35.9041067016  MEOH      2543            0.0000000000
     41743      3235  MEOH      LP1B          -24.7129105913        3.4905393536       36.4658223812  MEOH      2543            0.0000000000
     41744      3236  MEOH      C1             15.1662863373       21.6607879681      -25.3679901847  MEOH      2544            0.0000000000
     41745      3236  MEOH      DC1            15.1482811458       21.6614559304      -25.3670200696  MEOH      2544            0.0000000000
     41746      3236  MEOH      O1             16.1370988366       20.7085307899      -25.8035164031  MEOH      2544            0.0000000000
     41747      3236  MEOH      DO1            16.1317468358       20.7192979422      -25.8082576115  MEOH      2544            0.0000000000
     41748      3236  MEOH      HO1            15.9382521496       19.8408029223      -25.4182783690  MEOH      2544            0.0000000000
     41749      3236  MEOH      HO2            16.2211178308       20.8273505554      -26.7625381303  MEOH      2544            0.0000000000
     41750      3236  MEOH      H1A            15.4491095301       22.6759922677      -25.7196893080  MEOH      2544            0.0000000000
     41751      3236  MEOH      H1B            15.1267229558       21.6788618297      -24.2578419627  MEOH      2544            0.0000000000
     41752      3236  MEOH      H1C            14.1684132616       21.4044954457      -25.7837839649  MEOH      2544            0.0000000000
     41753      3236  MEOH      LP1A           16.0333881066       20.5603409869      -26.1031559646  MEOH      2544            0.0000000000
     41754      3236  MEOH      LP1B           16.4088658148       20.7052310568      -25.5829901659  MEOH      2544            0.0000000000
     41755      3237  MEOH      C1             20.0921645476       -2.3153471640       -7.1206746672  MEOH      2545            0.0000000000
     41756      3237  MEOH      DC1            20.0789335318       -2.3341787104       -7.1294602349  MEOH      2545            0.0000000000
     41757      3237  MEOH      O1             19.1109032590       -2.6351910205       -8.1048702066  MEOH      2545            0.0000000000
     41758      3237  MEOH      DO1            19.1071399871       -2.6544760329       -8.1132739781  MEOH      2545            0.0000000000
     41759      3237  MEOH      HO1            18.5751606531       -1.8336565855       -8.2117458858  MEOH      2545            0.0000000000
     41760      3237  MEOH      HO2            19.5979881210       -2.9775913693       -8.8706445457  MEOH      2545            0.0000000000
     41761      3237  MEOH      H1A            20.7707781298       -3.1794417466       -6.9559167816  MEOH      2545            0.0000000000
     41762      3237  MEOH      H1B            19.5887638693       -2.0509087524       -6.1662213765  MEOH      2545            0.0000000000
     41763      3237  MEOH      H1C            20.6879698761       -1.4374285159       -7.4502135234  MEOH      2545            0.0000000000
     41764      3237  MEOH      LP1A           19.2339632782       -2.5630196406       -8.4244754688  MEOH      2545            0.0000000000
     41765      3237  MEOH      LP1B           18.8274759286       -2.7716354586       -7.9514040419  MEOH      2545            0.0000000000
     41766      3238  MEOH      C1              6.8349296792        0.3370686647       31.5082933035  MEOH      2546            0.0000000000
     41767      3238  MEOH      DC1             6.8392753716        0.3295078475       31.5048747297  MEOH      2546            0.0000000000
     41768      3238  MEOH      O1              6.7796404885       -0.8315312221       32.3312318034  MEOH      2546            0.0000000000
     41769      3238  MEOH      DO1             6.7828513508       -0.8319636376       32.3343191487  MEOH      2546            0.0000000000
     41770      3238  MEOH      HO1             5.9567773656       -1.3011070062       32.1231576246  MEOH      2546            0.0000000000
     41771      3238  MEOH      HO2             7.6352115706       -1.2761199896       32.2252178796  MEOH      2546            0.0000000000
     41772      3238  MEOH      H1A             7.7165575984        0.9500501513       31.7934369676  MEOH      2546            0.0000000000
     41773      3238  MEOH      H1B             5.9228057236        0.9573541190       31.6409464111  MEOH      2546            0.0000000000
     41774      3238  MEOH      H1C             6.9211266668        0.0446285469       30.4399441762  MEOH      2546            0.0000000000
     41775      3238  MEOH      LP1A            6.9367352025       -1.0992992249       32.1696101851  MEOH      2546            0.0000000000
     41776      3238  MEOH      LP1B            6.6233747580       -0.7565320123       32.6352978160  MEOH      2546            0.0000000000
     41777      3239  MEOH      C1            -29.7703120074      -12.1642422517       32.5500712807  MEOH      2547            0.0000000000
     41778      3239  MEOH      DC1           -29.7779869424      -12.1609270326       32.5498090630  MEOH      2547            0.0000000000
     41779      3239  MEOH      O1            -28.5508283934      -11.7332891166       31.9413364567  MEOH      2547            0.0000000000
     41780      3239  MEOH      DO1           -28.5572092712      -11.7312756660       31.9381600638  MEOH      2547            0.0000000000
     41781      3239  MEOH      HO1           -28.0916160395      -11.1634474125       32.5779717108  MEOH      2547            0.0000000000
     41782      3239  MEOH      HO2           -28.1152698241      -12.5425325660       31.6309918540  MEOH      2547            0.0000000000
     41783      3239  MEOH      H1A           -30.3375168238      -12.7940633776       31.8317920537  MEOH      2547            0.0000000000
     41784      3239  MEOH      H1B           -30.3894014917      -11.2843414418       32.8272423052  MEOH      2547            0.0000000000
     41785      3239  MEOH      H1C           -29.5489876597      -12.7680638512       33.4560160964  MEOH      2547            0.0000000000
     41786      3239  MEOH      LP1A          -28.2954865163      -11.9628258367       32.0092586176  MEOH      2547            0.0000000000
     41787      3239  MEOH      LP1B          -28.6045307015      -11.4375538706       31.7620134901  MEOH      2547            0.0000000000
     41788      3240  MEOH      C1             -5.3078846627        4.3422791201       35.5599809965  MEOH      2548            0.0000000000
     41789      3240  MEOH      DC1            -5.3236333782        4.3539853887       35.5697484175  MEOH      2548            0.0000000000
     41790      3240  MEOH      O1             -4.9947898321        3.3043373082       36.4894406012  MEOH      2548            0.0000000000
     41791      3240  MEOH      DO1            -5.0037143112        3.3119808866       36.5041876519  MEOH      2548            0.0000000000
     41792      3240  MEOH      HO1            -5.5927153618        2.5748366371       36.2631358678  MEOH      2548            0.0000000000
     41793      3240  MEOH      HO2            -4.0419196525        3.1557428213       36.3852383966  MEOH      2548            0.0000000000
     41794      3240  MEOH      H1A            -4.5299788581        5.1352133119       35.5809315732  MEOH      2548            0.0000000000
     41795      3240  MEOH      H1B            -6.3127892624        4.7662661249       35.7714585758  MEOH      2548            0.0000000000
     41796      3240  MEOH      H1C            -5.3439275181        3.9035135370       34.5399287056  MEOH      2548            0.0000000000
     41797      3240  MEOH      LP1A           -4.7401155897        3.1014768549       36.3610323976  MEOH      2548            0.0000000000
     41798      3240  MEOH      LP1B           -5.1889679712        3.3398792220       36.7784589789  MEOH      2548            0.0000000000
     41799      3241  MEOH      C1            -12.9677565297       34.7778822823      -26.2104577125  MEOH      2549            0.0000000000
     41800      3241  MEOH      DC1           -12.9871556666       34.7742083937      -26.2104902943  MEOH      2549            0.0000000000
     41801      3241  MEOH      O1            -14.2279736204       34.2360628462      -26.6189495355  MEOH      2549            0.0000000000
     41802      3241  MEOH      DO1           -14.2346409266       34.2292027384      -26.6316811433  MEOH      2549            0.0000000000
     41803      3241  MEOH      HO1           -14.7146405835       34.9542626826      -27.0528207876  MEOH      2549            0.0000000000
     41804      3241  MEOH      HO2           -14.0278801347       33.4082625334      -27.0832869549  MEOH      2549            0.0000000000
     41805      3241  MEOH      H1A           -12.4553623103       34.0689076405      -25.5255284305  MEOH      2549            0.0000000000
     41806      3241  MEOH      H1B           -13.1133982664       35.7412562297      -25.6765849524  MEOH      2549            0.0000000000
     41807      3241  MEOH      H1C           -12.3180239303       34.9783132364      -27.0890907318  MEOH      2549            0.0000000000
     41808      3241  MEOH      LP1A          -14.2011368504       34.0995540466      -26.9401116992  MEOH      2549            0.0000000000
     41809      3241  MEOH      LP1B          -14.4626455175       34.2717488336      -26.3617422047  MEOH      2549            0.0000000000
     41810      3242  MEOH      C1             23.4368684523       13.5540172576       -6.7385766069  MEOH      2550            0.0000000000
     41811      3242  MEOH      DC1            23.4260621709       13.5652975165       -6.7450042792  MEOH      2550            0.0000000000
     41812      3242  MEOH      O1             22.9799589802       14.8306413873       -7.1818218004  MEOH      2550            0.0000000000
     41813      3242  MEOH      DO1            22.9593764382       14.8395746691       -7.1853014077  MEOH      2550            0.0000000000
     41814      3242  MEOH      HO1            23.1819054882       15.4406408293       -6.4551731304  MEOH      2550            0.0000000000
     41815      3242  MEOH      HO2            23.3804408348       14.9584263026       -8.0559987273  MEOH      2550            0.0000000000
     41816      3242  MEOH      H1A            23.2108830888       12.7826903554       -7.5055879666  MEOH      2550            0.0000000000
     41817      3242  MEOH      H1B            22.9286340132       13.2708778463       -5.7920826404  MEOH      2550            0.0000000000
     41818      3242  MEOH      H1C            24.5350571211       13.5757523924       -6.5717526495  MEOH      2550            0.0000000000
     41819      3242  MEOH      LP1A           23.2350042282       14.9951674248       -7.3561293001  MEOH      2550            0.0000000000
     41820      3242  MEOH      LP1B           22.6447498505       14.8756909501       -7.0917919371  MEOH      2550            0.0000000000
     41821      3243  MEOH      C1            -34.0809525925       17.8714051953       -0.8559222003  MEOH      2551            0.0000000000
     41822      3243  MEOH      DC1           -34.0851730769       17.8781821116       -0.8690050122  MEOH      2551            0.0000000000
     41823      3243  MEOH      O1            -35.2058272821       18.1685231546       -1.6722774200  MEOH      2551            0.0000000000
     41824      3243  MEOH      DO1           -35.2104529967       18.1731982055       -1.6808066733  MEOH      2551            0.0000000000
     41825      3243  MEOH      HO1           -34.9725729983       18.9289120367       -2.2275261814  MEOH      2551            0.0000000000
     41826      3243  MEOH      HO2           -35.4874674894       17.3156236882       -2.0385304676  MEOH      2551            0.0000000000
     41827      3243  MEOH      H1A           -34.3401426529       17.0005816176       -0.2165413979  MEOH      2551            0.0000000000
     41828      3243  MEOH      H1B           -33.8308869563       18.7297926886       -0.1964079174  MEOH      2551            0.0000000000
     41829      3243  MEOH      H1C           -33.1990506502       17.5868688770       -1.4687917196  MEOH      2551            0.0000000000
     41830      3243  MEOH      LP1A          -35.1894071935       17.9852643474       -1.9700131926  MEOH      2551            0.0000000000
     41831      3243  MEOH      LP1B          -35.4175090922       18.3931512855       -1.5072531366  MEOH      2551            0.0000000000
     41832      3244  MEOH      C1            -34.1549751075       20.8080184482      -28.2272584433  MEOH      2552            0.0000000000
     41833      3244  MEOH      DC1           -34.1488193780       20.8115004436      -28.2280956490  MEOH      2552            0.0000000000
     41834      3244  MEOH      O1            -34.9880205748       21.0435799048      -29.3633809275  MEOH      2552            0.0000000000
     41835      3244  MEOH      DO1           -34.9870637301       21.0580039419      -29.3613826076  MEOH      2552            0.0000000000
     41836      3244  MEOH      HO1           -35.7664289267       21.5387120745      -29.0636734494  MEOH      2552            0.0000000000
     41837      3244  MEOH      HO2           -34.4084516180       21.3860314235      -30.0617553134  MEOH      2552            0.0000000000
     41838      3244  MEOH      H1A           -33.3325247812       20.1150256840      -28.5059293789  MEOH      2552            0.0000000000
     41839      3244  MEOH      H1B           -34.7504733603       20.3431041620      -27.4126680325  MEOH      2552            0.0000000000
     41840      3244  MEOH      H1C           -33.7241375288       21.7664948296      -27.8666714095  MEOH      2552            0.0000000000
     41841      3244  MEOH      LP1A          -34.8962102707       21.3433079288      -29.5190535959  MEOH      2552            0.0000000000
     41842      3244  MEOH      LP1B          -35.2119383265       20.7777887230      -29.4048042084  MEOH      2552            0.0000000000
     41843      3245  MEOH      C1            -16.4102658810       -4.8217791033      -22.2261240124  MEOH      2553            0.0000000000
     41844      3245  MEOH      DC1           -16.4087758098       -4.8216758684      -22.2447008268  MEOH      2553            0.0000000000
     41845      3245  MEOH      O1            -15.9809991448       -5.1296483455      -20.9007849355  MEOH      2553            0.0000000000
     41846      3245  MEOH      DO1           -15.9820657476       -5.1216442528      -20.9129544824  MEOH      2553            0.0000000000
     41847      3245  MEOH      HO1           -15.3546246139       -4.4505413940      -20.6052029748  MEOH      2553            0.0000000000
     41848      3245  MEOH      HO2           -16.7892792928       -5.3083208153      -20.3951572536  MEOH      2553            0.0000000000
     41849      3245  MEOH      H1A           -17.0141193443       -5.6690139327      -22.6158356245  MEOH      2553            0.0000000000
     41850      3245  MEOH      H1B           -15.5288836462       -4.6614449702      -22.8832231845  MEOH      2553            0.0000000000
     41851      3245  MEOH      H1C           -17.0461223018       -3.9107336686      -22.2241673894  MEOH      2553            0.0000000000
     41852      3245  MEOH      LP1A          -16.1974281177       -4.9833752690      -20.6678414085  MEOH      2553            0.0000000000
     41853      3245  MEOH      LP1B          -15.6991869863       -5.3369411421      -20.9113492076  MEOH      2553            0.0000000000
     41854      3246  MEOH      C1             25.8564555891      -13.8045840639       -7.7004095958  MEOH      2554            0.0000000000
     41855      3246  MEOH      DC1            25.8513000435      -13.8141070234       -7.7045999020  MEOH      2554            0.0000000000
     41856      3246  MEOH      O1             26.0507567043      -12.3962260381       -7.8433031041  MEOH      2554            0.0000000000
     41857      3246  MEOH      DO1            26.0428350974      -12.3965902541       -7.8436838424  MEOH      2554            0.0000000000
     41858      3246  MEOH      HO1            25.9826270076      -11.9998201981       -6.9606249325  MEOH      2554            0.0000000000
     41859      3246  MEOH      HO2            26.8597231187      -12.2928933149       -8.3684656402  MEOH      2554            0.0000000000
     41860      3246  MEOH      H1A            25.9350664073      -14.2952373806       -8.6940899588  MEOH      2554            0.0000000000
     41861      3246  MEOH      H1B            24.8485687787      -14.0052822511       -7.2782657629  MEOH      2554            0.0000000000
     41862      3246  MEOH      H1C            26.6344432063      -14.2201132658       -7.0248418717  MEOH      2554            0.0000000000
     41863      3246  MEOH      LP1A           26.3912209995      -12.3191685211       -7.8178825845  MEOH      2554            0.0000000000
     41864      3246  MEOH      LP1B           25.7441895678      -12.2386386907       -7.9039893363  MEOH      2554            0.0000000000
     41865      3247  MEOH      C1            -28.6157659741        0.7931516657      -18.3366280896  MEOH      2555            0.0000000000
     41866      3247  MEOH      DC1           -28.6379142709        0.8044056005      -18.3392540376  MEOH      2555            0.0000000000
     41867      3247  MEOH      O1            -29.9258915303        1.2147307226      -18.7132773792  MEOH      2555            0.0000000000
     41868      3247  MEOH      DO1           -29.9457928277        1.2367143504      -18.7053456340  MEOH      2555            0.0000000000
     41869      3247  MEOH      HO1           -30.4991716293        0.9762135351      -17.9680529302  MEOH      2555            0.0000000000
     41870      3247  MEOH      HO2           -29.8361931566        2.1281999604      -19.0270099957  MEOH      2555            0.0000000000
     41871      3247  MEOH      H1A           -27.9166158836        0.8694921405      -19.1966759272  MEOH      2555            0.0000000000
     41872      3247  MEOH      H1B           -28.6300991038       -0.2599393708      -17.9829123389  MEOH      2555            0.0000000000
     41873      3247  MEOH      H1C           -28.2407310824        1.4307143743      -17.5076626963  MEOH      2555            0.0000000000
     41874      3247  MEOH      LP1A          -29.9784335265        1.5459887617      -18.6132401354  MEOH      2555            0.0000000000
     41875      3247  MEOH      LP1B          -30.0890535595        0.9580780159      -18.8865042257  MEOH      2555            0.0000000000
     41876      3248  MEOH      C1            -12.5538288399       35.3583887817        5.2067746713  MEOH      2556            0.0000000000
     41877      3248  MEOH      DC1           -12.5527509926       35.3605765617        5.2205921801  MEOH      2556            0.0000000000
     41878      3248  MEOH      O1            -13.2148287834       36.1081744247        6.2283067320  MEOH      2556            0.0000000000
     41879      3248  MEOH      DO1           -13.2152356800       36.1094815655        6.2373668397  MEOH      2556            0.0000000000
     41880      3248  MEOH      HO1           -13.2559626586       35.5472957071        7.0186377187  MEOH      2556            0.0000000000
     41881      3248  MEOH      HO2           -12.7630487969       36.9660722451        6.2566999386  MEOH      2556            0.0000000000
     41882      3248  MEOH      H1A           -12.5728473101       35.9164448813        4.2462890189  MEOH      2556            0.0000000000
     41883      3248  MEOH      H1B           -13.0737597119       34.3872968998        5.0619525554  MEOH      2556            0.0000000000
     41884      3248  MEOH      H1C           -11.4962866202       35.1692372396        5.4898773910  MEOH      2556            0.0000000000
     41885      3248  MEOH      LP1A          -12.9810805167       36.2947930866        6.4100626750  MEOH      2556            0.0000000000
     41886      3248  MEOH      LP1B          -13.5604560922       36.0559964071        6.2104400604  MEOH      2556            0.0000000000
     41887      3249  MEOH      C1             36.5802443972       -9.7513038403      -26.9577682250  MEOH      2557            0.0000000000
     41888      3249  MEOH      DC1            36.5740252189       -9.7417289445      -26.9654142323  MEOH      2557            0.0000000000
     41889      3249  MEOH      O1             36.4560720819       -9.1041852098      -28.2303223070  MEOH      2557            0.0000000000
     41890      3249  MEOH      DO1            36.4436352070       -9.0994114065      -28.2398441059  MEOH      2557            0.0000000000
     41891      3249  MEOH      HO1            36.9957072680       -8.2990598143      -28.1920213387  MEOH      2557            0.0000000000
     41892      3249  MEOH      HO2            36.6171199953       -9.7892830231      -28.8978584901  MEOH      2557            0.0000000000
     41893      3249  MEOH      H1A            35.9830711085      -10.6880951126      -26.9464909904  MEOH      2557            0.0000000000
     41894      3249  MEOH      H1B            36.2002397813       -9.0855139497      -26.1536281169  MEOH      2557            0.0000000000
     41895      3249  MEOH      H1C            37.6428061415      -10.0083368115      -26.7597339023  MEOH      2557            0.0000000000
     41896      3249  MEOH      LP1A           36.7017296261       -9.2229779607      -28.4495040884  MEOH      2557            0.0000000000
     41897      3249  MEOH      LP1B           36.1826894470       -8.8856607212      -28.2273251689  MEOH      2557            0.0000000000
     41898      3250  MEOH      C1              0.2026272905      -28.9369733586        7.1957047369  MEOH      2558            0.0000000000
     41899      3250  MEOH      DC1             0.1897324992      -28.9181013689        7.1876228036  MEOH      2558            0.0000000000
     41900      3250  MEOH      O1             -0.8080860453      -28.5586754643        6.2600749995  MEOH      2558            0.0000000000
     41901      3250  MEOH      DO1            -0.8167309697      -28.5487124302        6.2531608923  MEOH      2558            0.0000000000
     41902      3250  MEOH      HO1            -0.7268533835      -27.6003821591        6.1336819775  MEOH      2558            0.0000000000
     41903      3250  MEOH      HO2            -0.6926795544      -29.1549071966        5.5037093044  MEOH      2558            0.0000000000
     41904      3250  MEOH      H1A             0.1404396688      -30.0234147723        7.4195322481  MEOH      2558            0.0000000000
     41905      3250  MEOH      H1B             0.0768684642      -28.3861810943        8.1523308912  MEOH      2558            0.0000000000
     41906      3250  MEOH      H1C             1.2076964131      -28.7306341610        6.7695812858  MEOH      2558            0.0000000000
     41907      3250  MEOH      LP1A           -0.6841554270      -28.5829311885        5.9336506412  MEOH      2558            0.0000000000
     41908      3250  MEOH      LP1B           -1.1048783323      -28.4819376824        6.4289703849  MEOH      2558            0.0000000000
     41909      3251  MEOH      C1             -5.4752092513       -5.5403780266        0.9305740249  MEOH      2559            0.0000000000
     41910      3251  MEOH      DC1            -5.4708318141       -5.5540688050        0.9320754423  MEOH      2559            0.0000000000
     41911      3251  MEOH      O1             -6.5916335526       -4.6696940255        1.1009532893  MEOH      2559            0.0000000000
     41912      3251  MEOH      DO1            -6.5898768586       -4.6829313003        1.0927212329  MEOH      2559            0.0000000000
     41913      3251  MEOH      HO1            -6.9332881795       -4.4304407654        0.2252078963  MEOH      2559            0.0000000000
     41914      3251  MEOH      HO2            -7.1616923479       -5.0820506528        1.7687069733  MEOH      2559            0.0000000000
     41915      3251  MEOH      H1A            -5.0014680245       -5.7107164558        1.9209653968  MEOH      2559            0.0000000000
     41916      3251  MEOH      H1B            -4.7305981097       -5.0800729241        0.2464728170  MEOH      2559            0.0000000000
     41917      3251  MEOH      H1C            -5.8085879198       -6.5207350373        0.5279826742  MEOH      2559            0.0000000000
     41918      3251  MEOH      LP1A           -6.8861813662       -4.8567207325        1.1285684368  MEOH      2559            0.0000000000
     41919      3251  MEOH      LP1B           -6.4832764115       -4.3371201908        1.1133377333  MEOH      2559            0.0000000000
     41920      3252  MEOH      C1            -18.2422129460        3.2909903944        6.5805352933  MEOH      2560            0.0000000000
     41921      3252  MEOH      DC1           -18.2567360240        3.2857396504        6.5552942358  MEOH      2560            0.0000000000
     41922      3252  MEOH      O1            -18.5459830529        4.2347108560        7.6063716433  MEOH      2560            0.0000000000
     41923      3252  MEOH      DO1           -18.5582338869        4.2340024942        7.5807131656  MEOH      2560            0.0000000000
     41924      3252  MEOH      HO1           -18.8540425016        3.7407374616        8.3822515707  MEOH      2560            0.0000000000
     41925      3252  MEOH      HO2           -17.7305169302        4.7487324362        7.7145234788  MEOH      2560            0.0000000000
     41926      3252  MEOH      H1A           -17.7456336154        3.8248611296        5.7422560996  MEOH      2560            0.0000000000
     41927      3252  MEOH      H1B           -19.1727548163        2.8090403401        6.2115678494  MEOH      2560            0.0000000000
     41928      3252  MEOH      H1C           -17.5342320246        2.5266478233        6.9663648536  MEOH      2560            0.0000000000
     41929      3252  MEOH      LP1A          -18.2607073482        4.2981384476        7.7989715211  MEOH      2560            0.0000000000
     41930      3252  MEOH      LP1B          -18.8791934159        4.3382390665        7.5789351055  MEOH      2560            0.0000000000
     41931      3253  MEOH      C1             27.2455392758       20.3598868822        0.3426961281  MEOH      2561            0.0000000000
     41932      3253  MEOH      DC1            27.2386298280       20.3544897091        0.3453659891  MEOH      2561            0.0000000000
     41933      3253  MEOH      O1             28.4039729218       20.5914662922        1.1474131949  MEOH      2561            0.0000000000
     41934      3253  MEOH      DO1            28.3920425357       20.6028901108        1.1473834557  MEOH      2561            0.0000000000
     41935      3253  MEOH      HO1            29.1216332682       20.9010123161        0.5729178631  MEOH      2561            0.0000000000
     41936      3253  MEOH      HO2            28.1116941760       21.1076569211        1.9148898199  MEOH      2561            0.0000000000
     41937      3253  MEOH      H1A            26.4592043341       19.8812268582        0.9646952767  MEOH      2561            0.0000000000
     41938      3253  MEOH      H1B            27.4876012323       19.6942562090       -0.5132611242  MEOH      2561            0.0000000000
     41939      3253  MEOH      H1C            26.8586181633       21.3221549576       -0.0556168196  MEOH      2561            0.0000000000
     41940      3253  MEOH      LP1A           28.4024777630       20.9201798857        1.2676011226  MEOH      2561            0.0000000000
     41941      3253  MEOH      LP1B           28.5936592115       20.2983004055        1.1713479890  MEOH      2561            0.0000000000
     41942      3254  MEOH      C1            -27.4312450327       26.4034106659        3.1623316429  MEOH      2562            0.0000000000
     41943      3254  MEOH      DC1           -27.4471650425       26.4115221137        3.1760367131  MEOH      2562            0.0000000000
     41944      3254  MEOH      O1            -26.2763010078       26.2216576186        2.3508313563  MEOH      2562            0.0000000000
     41945      3254  MEOH      DO1           -26.2833779013       26.2335591820        2.3656859160  MEOH      2562            0.0000000000
     41946      3254  MEOH      HO1           -25.7099884804       25.5570647129        2.7733315239  MEOH      2562            0.0000000000
     41947      3254  MEOH      HO2           -26.6005116052       26.0736847150        1.4486719977  MEOH      2562            0.0000000000
     41948      3254  MEOH      H1A           -28.0659358670       27.2041387417        2.7260712917  MEOH      2562            0.0000000000
     41949      3254  MEOH      H1B           -27.1327759670       26.6903476044        4.1933041983  MEOH      2562            0.0000000000
     41950      3254  MEOH      H1C           -28.0114258647       25.4559895785        3.1725535331  MEOH      2562            0.0000000000
     41951      3254  MEOH      LP1A          -26.3356715537       25.9726270000        2.1121707411  MEOH      2562            0.0000000000
     41952      3254  MEOH      LP1B          -26.0266285814       26.4479113543        2.4455568889  MEOH      2562            0.0000000000
     41953      3255  MEOH      C1             -3.0180245919      -14.5188838113       -4.2850803861  MEOH      2563            0.0000000000
     41954      3255  MEOH      DC1            -3.0146400032      -14.5199182658       -4.2876168281  MEOH      2563            0.0000000000
     41955      3255  MEOH      O1             -3.0734253093      -13.6775350289       -5.4373895269  MEOH      2563            0.0000000000
     41956      3255  MEOH      DO1            -3.0650530150      -13.6839178561       -5.4440150785  MEOH      2563            0.0000000000
     41957      3255  MEOH      HO1            -3.9792069034      -13.3345976508       -5.4908091790  MEOH      2563            0.0000000000
     41958      3255  MEOH      HO2            -2.3381348518      -13.0526716830       -5.3384261898  MEOH      2563            0.0000000000
     41959      3255  MEOH      H1A            -1.9933919268      -14.9337883286       -4.1741608524  MEOH      2563            0.0000000000
     41960      3255  MEOH      H1B            -3.7418961431      -15.3562484182       -4.3807438323  MEOH      2563            0.0000000000
     41961      3255  MEOH      H1C            -3.2626376837      -13.9315536787       -3.3742956961  MEOH      2563            0.0000000000
     41962      3255  MEOH      LP1A           -2.9856783562      -13.3499715145       -5.3507718830  MEOH      2563            0.0000000000
     41963      3255  MEOH      LP1B           -3.1593983053      -13.8662231977       -5.7193565798  MEOH      2563            0.0000000000
     41964      3256  MEOH      C1            -19.7864057850      -32.2135757793      -26.2164060154  MEOH      2564            0.0000000000
     41965      3256  MEOH      DC1           -19.7633144930      -32.2136633300      -26.2181060226  MEOH      2564            0.0000000000
     41966      3256  MEOH      O1            -20.7266187044      -31.1593793082      -26.4357878333  MEOH      2564            0.0000000000
     41967      3256  MEOH      DO1           -20.7049998074      -31.1567736553      -26.4462839412  MEOH      2564            0.0000000000
     41968      3256  MEOH      HO1           -21.6106365128      -31.5525447280      -26.3662646930  MEOH      2564            0.0000000000
     41969      3256  MEOH      HO2           -20.4764759783      -30.4526751117      -25.8202410878  MEOH      2564            0.0000000000
     41970      3256  MEOH      H1A           -18.7550958552      -31.8031250116      -26.2638506840  MEOH      2564            0.0000000000
     41971      3256  MEOH      H1B           -19.9056024118      -32.9879224974      -27.0041244450  MEOH      2564            0.0000000000
     41972      3256  MEOH      H1C           -19.9591140745      -32.6726033433      -25.2195175843  MEOH      2564            0.0000000000
     41973      3256  MEOH      LP1A          -20.8042411236      -31.0031424163      -26.1323660252  MEOH      2564            0.0000000000
     41974      3256  MEOH      LP1B          -20.7978178898      -31.1316358741      -26.7773445312  MEOH      2564            0.0000000000
     41975      3257  MEOH      C1            -32.5290068726      -33.6850779575       23.6214536316  MEOH      2565            0.0000000000
     41976      3257  MEOH      DC1           -32.5376952035      -33.6967111921       23.6043953930  MEOH      2565            0.0000000000
     41977      3257  MEOH      O1            -31.6899760278      -33.1465603106       24.6445679954  MEOH      2565            0.0000000000
     41978      3257  MEOH      DO1           -31.7051644399      -33.1544841447       24.6389254178  MEOH      2565            0.0000000000
     41979      3257  MEOH      HO1           -30.9087308868      -33.7130481736       24.7427898476  MEOH      2565            0.0000000000
     41980      3257  MEOH      HO2           -31.5617345802      -32.2153502366       24.4051897817  MEOH      2565            0.0000000000
     41981      3257  MEOH      H1A           -33.4226015177      -33.0360430844       23.5007749441  MEOH      2565            0.0000000000
     41982      3257  MEOH      H1B           -32.8577171652      -34.7100649888       23.8965393094  MEOH      2565            0.0000000000
     41983      3257  MEOH      H1C           -31.9700311879      -33.7122830599       22.6616999828  MEOH      2565            0.0000000000
     41984      3257  MEOH      LP1A          -31.4646624567      -32.9172238763       24.5062256858  MEOH      2565            0.0000000000
     41985      3257  MEOH      LP1B          -31.7821316299      -33.2770653139       24.9559773549  MEOH      2565            0.0000000000
     41986      3258  MEOH      C1            -20.9929158493       -9.0875290525       -7.8093210022  MEOH      2566            0.0000000000
     41987      3258  MEOH      DC1           -20.9866300343       -9.0834960829       -7.7972714836  MEOH      2566            0.0000000000
     41988      3258  MEOH      O1            -21.5504857463      -10.3379318147       -8.2128754970  MEOH      2566            0.0000000000
     41989      3258  MEOH      DO1           -21.5368975592      -10.3416457063       -8.1930481774  MEOH      2566            0.0000000000
     41990      3258  MEOH      HO1           -20.8711371675      -10.8698687607       -8.6560781527  MEOH      2566            0.0000000000
     41991      3258  MEOH      HO2           -22.0916236333      -10.6620772933       -7.4759905007  MEOH      2566            0.0000000000
     41992      3258  MEOH      H1A           -21.8167113717       -8.3916175400       -7.5421336061  MEOH      2566            0.0000000000
     41993      3258  MEOH      H1B           -20.4145671266       -8.6412935265       -8.6464038000  MEOH      2566            0.0000000000
     41994      3258  MEOH      H1C           -20.3337488244       -9.2199563516       -6.9248534534  MEOH      2566            0.0000000000
     41995      3258  MEOH      LP1A          -21.5166975099      -10.5727062528       -7.9555054942  MEOH      2566            0.0000000000
     41996      3258  MEOH      LP1B          -21.6879351252      -10.3097994490       -8.5335252097  MEOH      2566            0.0000000000
     41997      3259  MEOH      C1            -34.1860336426      -11.6534130317       12.3087926764  MEOH      2567            0.0000000000
     41998      3259  MEOH      DC1           -34.1854279906      -11.6428151805       12.3056945216  MEOH      2567            0.0000000000
     41999      3259  MEOH      O1            -34.6241395383      -11.0098089283       13.5097978927  MEOH      2567            0.0000000000
     42000      3259  MEOH      DO1           -34.6287415488      -11.0071541644       13.5095601585  MEOH      2567            0.0000000000
     42001      3259  MEOH      HO1           -33.9339193313      -11.1406837876       14.1786535102  MEOH      2567            0.0000000000
     42002      3259  MEOH      HO2           -34.9116384047      -10.1203398350       13.2507821894  MEOH      2567            0.0000000000
     42003      3259  MEOH      H1A           -35.0040759992      -11.6293718926       11.5574274333  MEOH      2567            0.0000000000
     42004      3259  MEOH      H1B           -33.9366729563      -12.7154859061       12.5188913647  MEOH      2567            0.0000000000
     42005      3259  MEOH      H1C           -33.2919276519      -11.1386247272       11.8966173752  MEOH      2567            0.0000000000
     42006      3259  MEOH      LP1A          -34.5196961679      -10.6757602288       13.5115439629  MEOH      2567            0.0000000000
     42007      3259  MEOH      LP1B          -34.8115349276      -11.2329526609       13.7036788940  MEOH      2567            0.0000000000
     42008      3260  MEOH      C1            -21.8624779123      -28.9667816020        4.2664576520  MEOH      2568            0.0000000000
     42009      3260  MEOH      DC1           -21.8596571430      -28.9652390890        4.2515297303  MEOH      2568            0.0000000000
     42010      3260  MEOH      O1            -22.1804718924      -29.9103134983        5.2845956456  MEOH      2568            0.0000000000
     42011      3260  MEOH      DO1           -22.1855284047      -29.9059603545        5.2737430506  MEOH      2568            0.0000000000
     42012      3260  MEOH      HO1           -23.0791256624      -30.2378749464        5.1232732943  MEOH      2568            0.0000000000
     42013      3260  MEOH      HO2           -21.4315040906      -30.5260619714        5.3128984659  MEOH      2568            0.0000000000
     42014      3260  MEOH      H1A           -20.8860971735      -28.4878097724        4.4935867792  MEOH      2568            0.0000000000
     42015      3260  MEOH      H1B           -22.6441473868      -28.1786498702        4.2199581082  MEOH      2568            0.0000000000
     42016      3260  MEOH      H1C           -21.7919588022      -29.4935360075        3.2908153756  MEOH      2568            0.0000000000
     42017      3260  MEOH      LP1A          -22.0803342541      -30.2309209048        5.1861916606  MEOH      2568            0.0000000000
     42018      3260  MEOH      LP1B          -22.3237182560      -29.7467475093        5.5588704104  MEOH      2568            0.0000000000
     42019      3261  MEOH      C1             30.8050198862      -25.6595756090       -1.0549920324  MEOH      2569            0.0000000000
     42020      3261  MEOH      DC1            30.8041579031      -25.6629391601       -1.0814406524  MEOH      2569            0.0000000000
     42021      3261  MEOH      O1             31.7597833025      -25.5511648645       -2.1112355471  MEOH      2569            0.0000000000
     42022      3261  MEOH      DO1            31.7606680108      -25.5408820377       -2.1384124544  MEOH      2569            0.0000000000
     42023      3261  MEOH      HO1            32.4903191311      -25.0711994089       -1.6906995028  MEOH      2569            0.0000000000
     42024      3261  MEOH      HO2            31.9086671918      -26.4641370330       -2.4031523305  MEOH      2569            0.0000000000
     42025      3261  MEOH      H1A            29.9185919374      -26.2585370679       -1.3546779748  MEOH      2569            0.0000000000
     42026      3261  MEOH      H1B            30.4732495781      -24.6440720864       -0.7500296432  MEOH      2569            0.0000000000
     42027      3261  MEOH      H1C            31.2833608448      -26.1603406012       -0.1862312195  MEOH      2569            0.0000000000
     42028      3261  MEOH      LP1A           31.9707521312      -25.8304355420       -2.1110306605  MEOH      2569            0.0000000000
     42029      3261  MEOH      LP1B           31.7017661729      -25.2593441133       -2.2955577158  MEOH      2569            0.0000000000
     42030      3262  MEOH      C1             11.1115219866       -1.7055518588       35.4799532939  MEOH      2570            0.0000000000
     42031      3262  MEOH      DC1            11.1156310766       -1.7015626245       35.4823089954  MEOH      2570            0.0000000000
     42032      3262  MEOH      O1             12.2778995305       -1.8894795278       34.6797831596  MEOH      2570            0.0000000000
     42033      3262  MEOH      DO1            12.2827131941       -1.8836610196       34.6805975874  MEOH      2570            0.0000000000
     42034      3262  MEOH      HO1            11.9973416904       -1.8356005380       33.7528072415  MEOH      2570            0.0000000000
     42035      3262  MEOH      HO2            12.9570378422       -1.2977683557       35.0397123794  MEOH      2570            0.0000000000
     42036      3262  MEOH      H1A            11.3462473020       -1.9311111103       36.5421905797  MEOH      2570            0.0000000000
     42037      3262  MEOH      H1B            10.3104998282       -2.3934243706       35.1342425636  MEOH      2570            0.0000000000
     42038      3262  MEOH      H1C            10.7584959197       -0.6551668954       35.4000469284  MEOH      2570            0.0000000000
     42039      3262  MEOH      LP1A           12.4320481826       -1.5809587987       34.6201748314  MEOH      2570            0.0000000000
     42040      3262  MEOH      LP1B           12.3258680456       -2.2299916616       34.6145872373  MEOH      2570            0.0000000000
     42041      3263  MEOH      C1             -0.2144524291      -24.9085871575       -8.9801396063  MEOH      2571            0.0000000000
     42042      3263  MEOH      DC1            -0.2153351489      -24.9141931113       -8.9833237859  MEOH      2571            0.0000000000
     42043      3263  MEOH      O1             -1.5099383348      -25.4922791712       -9.1470863056  MEOH      2571            0.0000000000
     42044      3263  MEOH      DO1            -1.5107702132      -25.4975216354       -9.1482259335  MEOH      2571            0.0000000000
     42045      3263  MEOH      HO1            -1.7285701606      -25.9435466620       -8.3167503637  MEOH      2571            0.0000000000
     42046      3263  MEOH      HO2            -2.0792520084      -24.7774003043       -9.4722480307  MEOH      2571            0.0000000000
     42047      3263  MEOH      H1A             0.1174072376      -24.4539166379       -9.9379834771  MEOH      2571            0.0000000000
     42048      3263  MEOH      H1B             0.5245524975      -25.6830079972       -8.6827088051  MEOH      2571            0.0000000000
     42049      3263  MEOH      H1C            -0.2495242343      -24.1160169966       -8.2023713179  MEOH      2571            0.0000000000
     42050      3263  MEOH      LP1A           -1.7574110299      -25.2633146615       -9.0531048262  MEOH      2571            0.0000000000
     42051      3263  MEOH      LP1B           -1.4797460738      -25.8147732265       -9.2796985662  MEOH      2571            0.0000000000
     42052      3264  MEOH      C1            -26.6417258863      -17.1832572782       15.4910326442  MEOH      2572            0.0000000000
     42053      3264  MEOH      DC1           -26.6530511412      -17.1766661712       15.4950583294  MEOH      2572            0.0000000000
     42054      3264  MEOH      O1            -25.4138416942      -17.4667280399       16.1683575042  MEOH      2572            0.0000000000
     42055      3264  MEOH      DO1           -25.4263854163      -17.4599401863       16.1883887802  MEOH      2572            0.0000000000
     42056      3264  MEOH      HO1           -24.8740131072      -17.9912931155       15.5565433345  MEOH      2572            0.0000000000
     42057      3264  MEOH      HO2           -25.0893170280      -16.6138867341       16.4973642650  MEOH      2572            0.0000000000
     42058      3264  MEOH      H1A           -27.2834464284      -16.5288154951       16.1189034116  MEOH      2572            0.0000000000
     42059      3264  MEOH      H1B           -27.1812587418      -18.1316185760       15.2816618073  MEOH      2572            0.0000000000
     42060      3264  MEOH      H1C           -26.4224411733      -16.6645397297       14.5333441148  MEOH      2572            0.0000000000
     42061      3264  MEOH      LP1A          -25.1822073372      -17.2113389873       16.1081748120  MEOH      2572            0.0000000000
     42062      3264  MEOH      LP1B          -25.4437223172      -17.7637543075       16.3510664112  MEOH      2572            0.0000000000
     42063      3265  MEOH      C1            -10.0746864306       26.2153386724        8.6714405938  MEOH      2573            0.0000000000
     42064      3265  MEOH      DC1           -10.0845361534       26.2276126860        8.6685394216  MEOH      2573            0.0000000000
     42065      3265  MEOH      O1             -8.8037438436       25.7521022129        8.2193232582  MEOH      2573            0.0000000000
     42066      3265  MEOH      DO1            -8.8113090975       25.7618623930        8.2165775617  MEOH      2573            0.0000000000
     42067      3265  MEOH      HO1            -8.1661127850       25.8971510218        8.9357640975  MEOH      2573            0.0000000000
     42068      3265  MEOH      HO2            -8.9516512881       24.8568662919        7.8764296390  MEOH      2573            0.0000000000
     42069      3265  MEOH      H1A           -10.8278953419       26.0882591453        7.8646890027  MEOH      2573            0.0000000000
     42070      3265  MEOH      H1B           -10.0007693780       27.2861203488        8.9582922501  MEOH      2573            0.0000000000
     42071      3265  MEOH      H1C           -10.3967047957       25.6213636667        9.5533809919  MEOH      2573            0.0000000000
     42072      3265  MEOH      LP1A           -8.7658283543       25.4127163145        8.2960019882  MEOH      2573            0.0000000000
     42073      3265  MEOH      LP1B           -8.6329865734       26.0107429046        8.0566980840  MEOH      2573            0.0000000000
     42074      3266  MEOH      C1              1.6525093483      -27.0762792143      -35.8304888850  MEOH      2574            0.0000000000
     42075      3266  MEOH      DC1             1.6490646688      -27.0639179549      -35.8253204837  MEOH      2574            0.0000000000
     42076      3266  MEOH      O1              2.6888482906      -26.1871442163      -35.3951864114  MEOH      2574            0.0000000000
     42077      3266  MEOH      DO1             2.6879817604      -26.1747360690      -35.3902332394  MEOH      2574            0.0000000000
     42078      3266  MEOH      HO1             3.5210225532      -26.6028150839      -35.6701477295  MEOH      2574            0.0000000000
     42079      3266  MEOH      HO2             2.4574655226      -25.3167229394      -35.7553652779  MEOH      2574            0.0000000000
     42080      3266  MEOH      H1A             0.6642908469      -26.7052932761      -35.4839133124  MEOH      2574            0.0000000000
     42081      3266  MEOH      H1B             1.8235693230      -28.0898383022      -35.4088759578  MEOH      2574            0.0000000000
     42082      3266  MEOH      H1C             1.6373683183      -27.1501150225      -36.9389292415  MEOH      2574            0.0000000000
     42083      3266  MEOH      LP1A            2.7558513104      -25.9504114918      -35.6441205642  MEOH      2574            0.0000000000
     42084      3266  MEOH      LP1B            2.7870538929      -26.2682563945      -35.0691856840  MEOH      2574            0.0000000000
     42085      3267  MEOH      C1            -26.3822004221      -19.1510318110      -16.3067023911  MEOH      2575            0.0000000000
     42086      3267  MEOH      DC1           -26.3901001235      -19.1438739867      -16.2854551121  MEOH      2575            0.0000000000
     42087      3267  MEOH      O1            -25.3369867812      -19.0760404773      -15.3343606592  MEOH      2575            0.0000000000
     42088      3267  MEOH      DO1           -25.3437924146      -19.0708842927      -15.3172617459  MEOH      2575            0.0000000000
     42089      3267  MEOH      HO1           -24.5823911840      -19.5401295123      -15.7294642563  MEOH      2575            0.0000000000
     42090      3267  MEOH      HO2           -25.2600450470      -18.1366738427      -15.1050785275  MEOH      2575            0.0000000000
     42091      3267  MEOH      H1A           -27.3115067657      -18.6915683684      -15.9071976163  MEOH      2575            0.0000000000
     42092      3267  MEOH      H1B           -26.5763751152      -20.2117276982      -16.5741746763  MEOH      2575            0.0000000000
     42093      3267  MEOH      H1C           -26.0879095299      -18.6042751628      -17.2279900984  MEOH      2575            0.0000000000
     42094      3267  MEOH      LP1A          -25.1491893435      -18.7846742732      -15.3827120554  MEOH      2575            0.0000000000
     42095      3267  MEOH      LP1B          -25.3566778518      -19.3489818698      -15.1161514523  MEOH      2575            0.0000000000
     42096      3268  MEOH      C1             35.5172364762        2.3680332535        0.5671822034  MEOH      2576            0.0000000000
     42097      3268  MEOH      DC1            35.5086334097        2.3674809126        0.5640318034  MEOH      2576            0.0000000000
     42098      3268  MEOH      O1             36.2720492491        3.4228418599       -0.0403874348  MEOH      2576            0.0000000000
     42099      3268  MEOH      DO1            36.2723317070        3.4248274178       -0.0421127294  MEOH      2576            0.0000000000
     42100      3268  MEOH      HO1            36.5121994181        3.1607575299       -0.9429059674  MEOH      2576            0.0000000000
     42101      3268  MEOH      HO2            35.8248624060        4.2586243857        0.1655045199  MEOH      2576            0.0000000000
     42102      3268  MEOH      H1A            35.5173864442        2.5142403065        1.6685197891  MEOH      2576            0.0000000000
     42103      3268  MEOH      H1B            36.0030313551        1.3912003504        0.3571302674  MEOH      2576            0.0000000000
     42104      3268  MEOH      H1C            34.4703923235        2.3614366011        0.1951676821  MEOH      2576            0.0000000000
     42105      3268  MEOH      LP1A           36.0564436429        3.6481343643       -0.1993135499  MEOH      2576            0.0000000000
     42106      3268  MEOH      LP1B           36.6129047156        3.3800617918        0.0266007487  MEOH      2576            0.0000000000
     42107      3269  MEOH      C1             -0.5131902335       -8.7131068932        8.7727489374  MEOH      2577            0.0000000000
     42108      3269  MEOH      DC1            -0.5171189898       -8.7089570018        8.7715907487  MEOH      2577            0.0000000000
     42109      3269  MEOH      O1             -1.3703862411       -9.5704207317        8.0185275916  MEOH      2577            0.0000000000
     42110      3269  MEOH      DO1            -1.3772368820       -9.5611592086        8.0104211514  MEOH      2577            0.0000000000
     42111      3269  MEOH      HO1            -2.2382112530       -9.1429383010        7.9475450585  MEOH      2577            0.0000000000
     42112      3269  MEOH      HO2            -0.8700334040       -9.8168530811        7.2249167692  MEOH      2577            0.0000000000
     42113      3269  MEOH      H1A             0.4504702673       -9.2317545459        8.9642797500  MEOH      2577            0.0000000000
     42114      3269  MEOH      H1B            -0.9887992614       -8.4658903091        9.7458887079  MEOH      2577            0.0000000000
     42115      3269  MEOH      H1C            -0.3126013644       -7.7791358503        8.2054895628  MEOH      2577            0.0000000000
     42116      3269  MEOH      LP1A           -1.3422222363       -9.4977620723        7.6773128381  MEOH      2577            0.0000000000
     42117      3269  MEOH      LP1B           -1.5337342894       -9.7944142015        8.2321729534  MEOH      2577            0.0000000000
     42118      3270  MEOH      C1             -6.2467288995        5.9377993939       13.0577212296  MEOH      2578            0.0000000000
     42119      3270  MEOH      DC1            -6.2399850741        5.9432110057       13.0619175292  MEOH      2578            0.0000000000
     42120      3270  MEOH      O1             -6.2492665792        5.2746858547       11.7944805732  MEOH      2578            0.0000000000
     42121      3270  MEOH      DO1            -6.2233018776        5.2696597801       11.7988453579  MEOH      2578            0.0000000000
     42122      3270  MEOH      HO1            -6.9064733141        4.5649802138       11.8672625170  MEOH      2578            0.0000000000
     42123      3270  MEOH      HO2            -6.4195277908        5.9770408689       11.1474809180  MEOH      2578            0.0000000000
     42124      3270  MEOH      H1A            -5.6057770910        6.8425443474       12.9874478480  MEOH      2578            0.0000000000
     42125      3270  MEOH      H1B            -5.8463669426        5.2688283400       13.8492444662  MEOH      2578            0.0000000000
     42126      3270  MEOH      H1C            -7.2778268046        6.2507673613       13.3282931462  MEOH      2578            0.0000000000
     42127      3270  MEOH      LP1A           -6.4789287594        5.4278727874       11.5793316792  MEOH      2578            0.0000000000
     42128      3270  MEOH      LP1B           -6.0119465436        5.0174334540       11.7938456962  MEOH      2578            0.0000000000
     42129      3271  MEOH      C1             19.0236568664       25.0392289230      -13.8760647175  MEOH      2579            0.0000000000
     42130      3271  MEOH      DC1            19.0423051177       25.0258555693      -13.8694353509  MEOH      2579            0.0000000000
     42131      3271  MEOH      O1             18.7398602238       26.3115603228      -13.2855644293  MEOH      2579            0.0000000000
     42132      3271  MEOH      DO1            18.7711391675       26.3119305079      -13.2756609183  MEOH      2579            0.0000000000
     42133      3271  MEOH      HO1            18.8015992823       26.9569422430      -14.0070701231  MEOH      2579            0.0000000000
     42134      3271  MEOH      HO2            17.8585890706       26.2071247860      -12.8939595605  MEOH      2579            0.0000000000
     42135      3271  MEOH      H1A            18.7283445868       24.2323237461      -13.1717809009  MEOH      2579            0.0000000000
     42136      3271  MEOH      H1B            20.1044938527       24.9663062096      -14.1226305048  MEOH      2579            0.0000000000
     42137      3271  MEOH      H1C            18.4367087539       24.9142450490      -14.8110470406  MEOH      2579            0.0000000000
     42138      3271  MEOH      LP1A           18.3956231683       26.3740290016      -13.2954898405  MEOH      2579            0.0000000000
     42139      3271  MEOH      LP1B           19.0352172392       26.4568916238      -13.1666398885  MEOH      2579            0.0000000000
     42140      3272  MEOH      C1            -18.9854574283        6.4691682336       -0.2521584196  MEOH      2580            0.0000000000
     42141      3272  MEOH      DC1           -18.9897366568        6.4718244785       -0.2384729069  MEOH      2580            0.0000000000
     42142      3272  MEOH      O1            -17.6499998183        5.9822268081       -0.1212994141  MEOH      2580            0.0000000000
     42143      3272  MEOH      DO1           -17.6505120998        5.9819603945       -0.1063534275  MEOH      2580            0.0000000000
     42144      3272  MEOH      HO1           -17.3385917958        5.8032476498       -1.0223496381  MEOH      2580            0.0000000000
     42145      3272  MEOH      HO2           -17.1858550696        6.6305074607        0.4311513509  MEOH      2580            0.0000000000
     42146      3272  MEOH      H1A           -19.3917289623        6.7404173477        0.7456834313  MEOH      2580            0.0000000000
     42147      3272  MEOH      H1B           -19.6198215291        5.6933807262       -0.7318009230  MEOH      2580            0.0000000000
     42148      3272  MEOH      H1C           -18.9853183293        7.3725026860       -0.8989256491  MEOH      2580            0.0000000000
     42149      3272  MEOH      LP1A          -17.4241002984        6.2495190158       -0.1262271529  MEOH      2580            0.0000000000
     42150      3272  MEOH      LP1B          -17.6526452576        5.6343367445       -0.0830174957  MEOH      2580            0.0000000000
     42151      3273  MEOH      C1             34.4807074181       17.0152649620       24.7851722193  MEOH      2581            0.0000000000
     42152      3273  MEOH      DC1            34.4840642662       17.0082648436       24.7774672608  MEOH      2581            0.0000000000
     42153      3273  MEOH      O1             35.2175176871       15.9854505205       24.1187829556  MEOH      2581            0.0000000000
     42154      3273  MEOH      DO1            35.2221826653       15.9855841520       24.1089973529  MEOH      2581            0.0000000000
     42155      3273  MEOH      HO1            35.9740823718       15.7714354350       24.6868563849  MEOH      2581            0.0000000000
     42156      3273  MEOH      HO2            34.5697569618       15.2951110537       23.9072706296  MEOH      2581            0.0000000000
     42157      3273  MEOH      H1A            33.6171556666       17.3247584862       24.1584241575  MEOH      2581            0.0000000000
     42158      3273  MEOH      H1B            35.1290550976       17.8983118122       24.9700898960  MEOH      2581            0.0000000000
     42159      3273  MEOH      H1C            34.0949813984       16.6405591108       25.7573511960  MEOH      2581            0.0000000000
     42160      3273  MEOH      LP1A           35.0953712897       15.6711153029       24.2124506049  MEOH      2581            0.0000000000
     42161      3273  MEOH      LP1B           35.4553713205       16.1276434088       23.9049913944  MEOH      2581            0.0000000000
     42162      3274  MEOH      C1            -16.0703249186       29.4686233858       25.0895760600  MEOH      2582            0.0000000000
     42163      3274  MEOH      DC1           -16.0713372448       29.4620340239       25.0873728035  MEOH      2582            0.0000000000
     42164      3274  MEOH      O1            -15.6954749007       29.7287387873       23.7354687747  MEOH      2582            0.0000000000
     42165      3274  MEOH      DO1           -15.7028297838       29.7250839632       23.7308714975  MEOH      2582            0.0000000000
     42166      3274  MEOH      HO1           -14.9147613821       30.3036093109       23.7656396811  MEOH      2582            0.0000000000
     42167      3274  MEOH      HO2           -15.6490287653       28.8656348896       23.2952479005  MEOH      2582            0.0000000000
     42168      3274  MEOH      H1A           -16.9937645763       28.8512171196       25.1093169079  MEOH      2582            0.0000000000
     42169      3274  MEOH      H1B           -16.2561225705       30.4219501036       25.6289909313  MEOH      2582            0.0000000000
     42170      3274  MEOH      H1C           -15.2546798212       28.9173677575       25.6045142193  MEOH      2582            0.0000000000
     42171      3274  MEOH      LP1A          -15.4735457865       29.4824469550       23.6232734024  MEOH      2582            0.0000000000
     42172      3274  MEOH      LP1B          -15.8633399814       30.0121371551       23.6171189551  MEOH      2582            0.0000000000
     42173      3275  MEOH      C1            -33.4196259710      -27.3474272521       -6.1757650172  MEOH      2583            0.0000000000
     42174      3275  MEOH      DC1           -33.4087947881      -27.3494803734       -6.1755668456  MEOH      2583            0.0000000000
     42175      3275  MEOH      O1            -33.0052333912      -26.6826219339       -7.3683359854  MEOH      2583            0.0000000000
     42176      3275  MEOH      DO1           -33.0024365352      -26.6805140535       -7.3659178874  MEOH      2583            0.0000000000
     42177      3275  MEOH      HO1           -33.4294728115      -25.8105151545       -7.3870624450  MEOH      2583            0.0000000000
     42178      3275  MEOH      HO2           -32.0406046873      -26.7728442651       -7.4157848471  MEOH      2583            0.0000000000
     42179      3275  MEOH      H1A           -33.0107518652      -28.3802066914       -6.1531907620  MEOH      2583            0.0000000000
     42180      3275  MEOH      H1B           -34.5284337501      -27.4142058433       -6.1555925280  MEOH      2583            0.0000000000
     42181      3275  MEOH      H1C           -33.0566008704      -26.7937019841       -5.2836203518  MEOH      2583            0.0000000000
     42182      3275  MEOH      LP1A          -32.7106599064      -26.5031175145       -7.3091361083  MEOH      2583            0.0000000000
     42183      3275  MEOH      LP1B          -33.2239184155      -26.7596947409       -7.6305127246  MEOH      2583            0.0000000000
     42184      3276  MEOH      C1              7.0335142089       15.0559392411      -19.0588257576  MEOH      2584            0.0000000000
     42185      3276  MEOH      DC1             7.0393467175       15.0577190149      -19.0782415602  MEOH      2584            0.0000000000
     42186      3276  MEOH      O1              6.8083837831       14.9734063543      -17.6546359522  MEOH      2584            0.0000000000
     42187      3276  MEOH      DO1             6.8141393377       14.9670755298      -17.6719527243  MEOH      2584            0.0000000000
     42188      3276  MEOH      HO1             5.9466513966       15.3706322012      -17.4533179931  MEOH      2584            0.0000000000
     42189      3276  MEOH      HO2             6.9921055634       14.0528249383      -17.4103488987  MEOH      2584            0.0000000000
     42190      3276  MEOH      H1A             8.0532937657       14.6813937521      -19.2913904454  MEOH      2584            0.0000000000
     42191      3276  MEOH      H1B             6.9655612954       16.1193025792      -19.3734077234  MEOH      2584            0.0000000000
     42192      3276  MEOH      H1C             6.2801065947       14.4491308343      -19.6051603843  MEOH      2584            0.0000000000
     42193      3276  MEOH      LP1A            6.6501932733       14.6711767370      -17.5763223455  MEOH      2584            0.0000000000
     42194      3276  MEOH      LP1B            6.9388912612       15.2565749725      -17.4956286196  MEOH      2584            0.0000000000
     42195      3277  MEOH      C1            -15.2088673727       18.5502453424      -22.0840377559  MEOH      2585            0.0000000000
     42196      3277  MEOH      DC1           -15.2033764111       18.5566015562      -22.0710616562  MEOH      2585            0.0000000000
     42197      3277  MEOH      O1            -13.8606187105       18.8481770846      -22.4475342499  MEOH      2585            0.0000000000
     42198      3277  MEOH      DO1           -13.8509252743       18.8490975133      -22.4381779623  MEOH      2585            0.0000000000
     42199      3277  MEOH      HO1           -13.7200465143       18.4180632252      -23.3055211537  MEOH      2585            0.0000000000
     42200      3277  MEOH      HO2           -13.7828458346       19.8131929307      -22.3875692882  MEOH      2585            0.0000000000
     42201      3277  MEOH      H1A           -15.4430072631       19.0241927312      -21.1068615254  MEOH      2585            0.0000000000
     42202      3277  MEOH      H1B           -15.3411544741       17.4497704616      -22.0080367060  MEOH      2585            0.0000000000
     42203      3277  MEOH      H1C           -15.9112562337       18.9355282773      -22.8537961271  MEOH      2585            0.0000000000
     42204      3277  MEOH      LP1A          -13.8485027611       19.1487468330      -22.6264505157  MEOH      2585            0.0000000000
     42205      3277  MEOH      LP1B          -13.6453566798       18.6035203341      -22.3198419144  MEOH      2585            0.0000000000
     42206      3278  MEOH      C1            -17.7929396414      -13.0298447328       -9.4956957689  MEOH      2586            0.0000000000
     42207      3278  MEOH      DC1           -17.7979274434      -13.0229499688       -9.4774187866  MEOH      2586            0.0000000000
     42208      3278  MEOH      O1            -16.4109141600      -13.2836159800       -9.2610980838  MEOH      2586            0.0000000000
     42209      3278  MEOH      DO1           -16.4193900866      -13.2814525589       -9.2497805451  MEOH      2586            0.0000000000
     42210      3278  MEOH      HO1           -16.0604551592      -12.6759578977       -8.5911502174  MEOH      2586            0.0000000000
     42211      3278  MEOH      HO2           -16.3031062973      -14.2460196646       -9.2058114369  MEOH      2586            0.0000000000
     42212      3278  MEOH      H1A           -18.1048582470      -13.5890274698      -10.4036288339  MEOH      2586            0.0000000000
     42213      3278  MEOH      H1B           -17.9575203400      -11.9444682029       -9.6665523813  MEOH      2586            0.0000000000
     42214      3278  MEOH      H1C           -18.4026041555      -13.3821650763       -8.6363352177  MEOH      2586            0.0000000000
     42215      3278  MEOH      LP1A          -16.3743905712      -13.5237230199       -9.0090769798  MEOH      2586            0.0000000000
     42216      3278  MEOH      LP1B          -16.2154108063      -13.0946136083       -9.4814535744  MEOH      2586            0.0000000000
     42217      3279  MEOH      C1             -4.9385904728      -11.4971048213      -27.0794122577  MEOH      2587            0.0000000000
     42218      3279  MEOH      DC1            -4.9414384175      -11.5010138986      -27.0892121158  MEOH      2587            0.0000000000
     42219      3279  MEOH      O1             -4.5408715475      -10.5936234242      -26.0487418779  MEOH      2587            0.0000000000
     42220      3279  MEOH      DO1            -4.5467395554      -10.5875426259      -26.0584953668  MEOH      2587            0.0000000000
     42221      3279  MEOH      HO1            -4.6857397938      -11.0602842435      -25.2108034123  MEOH      2587            0.0000000000
     42222      3279  MEOH      HO2            -3.6412222891      -10.3193070360      -26.2859795878  MEOH      2587            0.0000000000
     42223      3279  MEOH      H1A            -4.7604047368      -11.0383717590      -28.0754719057  MEOH      2587            0.0000000000
     42224      3279  MEOH      H1B            -6.0186329702      -11.7418582124      -26.9903898903  MEOH      2587            0.0000000000
     42225      3279  MEOH      H1C            -4.3413674434      -12.4298889921      -26.9924677716  MEOH      2587            0.0000000000
     42226      3279  MEOH      LP1A           -4.2000269926      -10.6332423831      -25.9797829951  MEOH      2587            0.0000000000
     42227      3279  MEOH      LP1B           -4.8122863437      -10.3945890109      -25.9527246362  MEOH      2587            0.0000000000
     42228      3280  MEOH      C1             13.2404812924       28.2818538890      -28.6596209282  MEOH      2588            0.0000000000
     42229      3280  MEOH      DC1            13.2285826678       28.2827172009      -28.6580095012  MEOH      2588            0.0000000000
     42230      3280  MEOH      O1             13.9356988356       27.0369655077      -28.6963761439  MEOH      2588            0.0000000000
     42231      3280  MEOH      DO1            13.9253052144       27.0402762318      -28.6942482101  MEOH      2588            0.0000000000
     42232      3280  MEOH      HO1            13.3844258850       26.3512723729      -28.2879363571  MEOH      2588            0.0000000000
     42233      3280  MEOH      HO2            14.2469779726       26.9351103048      -29.6094099968  MEOH      2588            0.0000000000
     42234      3280  MEOH      H1A            13.9149797694       29.0914161216      -29.0117314167  MEOH      2588            0.0000000000
     42235      3280  MEOH      H1B            12.9110017480       28.5164626136      -27.6248634792  MEOH      2588            0.0000000000
     42236      3280  MEOH      H1C            12.3645300537       28.2267667943      -29.3407933292  MEOH      2588            0.0000000000
     42237      3280  MEOH      LP1A           13.8641502526       26.8686649869      -28.9947982191  MEOH      2588            0.0000000000
     42238      3280  MEOH      LP1B           14.1328011201       27.0014097092      -28.4093457019  MEOH      2588            0.0000000000
     42239      3281  MEOH      C1             35.3673807411      -28.8461014077       28.1431964006  MEOH      2589            0.0000000000
     42240      3281  MEOH      DC1            35.3754451191      -28.8466994913       28.1483677545  MEOH      2589            0.0000000000
     42241      3281  MEOH      O1             34.1000663703      -29.2509903572       28.6470473963  MEOH      2589            0.0000000000
     42242      3281  MEOH      DO1            34.1052928871      -29.2432559892       28.6588533699  MEOH      2589            0.0000000000
     42243      3281  MEOH      HO1            33.4894419044      -29.2055102902       27.8947380681  MEOH      2589            0.0000000000
     42244      3281  MEOH      HO2            34.2633816397      -30.1168946588       29.0525567843  MEOH      2589            0.0000000000
     42245      3281  MEOH      H1A            36.1309564233      -28.9315830048       28.9456713685  MEOH      2589            0.0000000000
     42246      3281  MEOH      H1B            35.3353947198      -27.8018014848       27.7653927916  MEOH      2589            0.0000000000
     42247      3281  MEOH      H1C            35.6562233092      -29.5211154701       27.3093816808  MEOH      2589            0.0000000000
     42248      3281  MEOH      LP1A           34.0655059184      -29.5981594402       28.6191331897  MEOH      2589            0.0000000000
     42249      3281  MEOH      LP1B           33.9259635820      -28.9734455137       28.7701614856  MEOH      2589            0.0000000000
     42250      3282  MEOH      C1            -13.1127483145       25.6605036120      -27.9708650825  MEOH      2590            0.0000000000
     42251      3282  MEOH      DC1           -13.1032356529       25.6581096458      -27.9774597952  MEOH      2590            0.0000000000
     42252      3282  MEOH      O1            -12.8908292187       25.9689348090      -29.3433387692  MEOH      2590            0.0000000000
     42253      3282  MEOH      DO1           -12.8793428116       25.9643978066      -29.3494981589  MEOH      2590            0.0000000000
     42254      3282  MEOH      HO1           -13.3957481712       26.7752965132      -29.5323828238  MEOH      2590            0.0000000000
     42255      3282  MEOH      HO2           -11.9310805556       25.9385324257      -29.4806639264  MEOH      2590            0.0000000000
     42256      3282  MEOH      H1A           -12.6985069660       24.6551668440      -27.7427793761  MEOH      2590            0.0000000000
     42257      3282  MEOH      H1B           -14.2022298950       25.6654159647      -27.7533179495  MEOH      2590            0.0000000000
     42258      3282  MEOH      H1C           -12.6116529422       26.4190640863      -27.3322647108  MEOH      2590            0.0000000000
     42259      3282  MEOH      LP1A          -12.6082715612       26.1728771010      -29.3760299251  MEOH      2590            0.0000000000
     42260      3282  MEOH      LP1B          -13.1293055939       25.8076273424      -29.5423586670  MEOH      2590            0.0000000000
     42261      3283  MEOH      C1             24.8693668699       30.9364536158       -1.5712357844  MEOH      2591            0.0000000000
     42262      3283  MEOH      DC1            24.8692684274       30.9439077053       -1.5681566190  MEOH      2591            0.0000000000
     42263      3283  MEOH      O1             24.2636635407       29.6433587496       -1.5479872732  MEOH      2591            0.0000000000
     42264      3283  MEOH      DO1            24.2662165406       29.6480521878       -1.5520436177  MEOH      2591            0.0000000000
     42265      3283  MEOH      HO1            23.6365612468       29.5783713092       -2.2851570956  MEOH      2591            0.0000000000
     42266      3283  MEOH      HO2            24.9769982030       28.9965485196       -1.4309822050  MEOH      2591            0.0000000000
     42267      3283  MEOH      H1A            25.4744848766       31.0705686235       -0.6491911203  MEOH      2591            0.0000000000
     42268      3283  MEOH      H1B            24.0888195446       31.7259436724       -1.6133347697  MEOH      2591            0.0000000000
     42269      3283  MEOH      H1C            25.5397879228       31.0292015124       -2.4522888133  MEOH      2591            0.0000000000
     42270      3283  MEOH      LP1A           24.4554165958       29.4179723425       -1.7348876032  MEOH      2591            0.0000000000
     42271      3283  MEOH      LP1B           23.9765501043       29.6492374355       -1.3479089992  MEOH      2591            0.0000000000
     42272      3284  MEOH      C1             26.3108192352      -29.5756530849       36.6170172971  MEOH      2592            0.0000000000
     42273      3284  MEOH      DC1            26.3101205826      -29.5765894508       36.6294010871  MEOH      2592            0.0000000000
     42274      3284  MEOH      O1             26.2201330967      -28.1666076432       36.4571901798  MEOH      2592            0.0000000000
     42275      3284  MEOH      DO1            26.2222776222      -28.1682568394       36.4600693661  MEOH      2592            0.0000000000
     42276      3284  MEOH      HO1            26.9883225451      -27.8952025807       35.9307642457  MEOH      2592            0.0000000000
     42277      3284  MEOH      HO2            25.3242430927      -28.0129178741       36.1185745340  MEOH      2592            0.0000000000
     42278      3284  MEOH      H1A            25.3089601440      -29.9307727680       36.9402654556  MEOH      2592            0.0000000000
     42279      3284  MEOH      H1B            27.1020937749      -29.8255099913       37.3557846020  MEOH      2592            0.0000000000
     42280      3284  MEOH      H1C            26.5466723522      -30.1019024747       35.6674090160  MEOH      2592            0.0000000000
     42281      3284  MEOH      LP1A           26.0336498923      -28.0903521455       36.1709924973  MEOH      2592            0.0000000000
     42282      3284  MEOH      LP1B           26.3816231082      -28.0053907376       36.7225768516  MEOH      2592            0.0000000000
     42283      3285  MEOH      C1             33.0302077003      -16.4277475357       20.5491144385  MEOH      2593            0.0000000000
     42284      3285  MEOH      DC1            33.0269708656      -16.4131348614       20.5508168803  MEOH      2593            0.0000000000
     42285      3285  MEOH      O1             34.1448118762      -17.1367694267       20.0065977413  MEOH      2593            0.0000000000
     42286      3285  MEOH      DO1            34.1463399061      -17.1177917759       19.9990023397  MEOH      2593            0.0000000000
     42287      3285  MEOH      HO1            34.7714881385      -17.2838182816       20.7322378012  MEOH      2593            0.0000000000
     42288      3285  MEOH      HO2            33.7603348995      -17.9158107721       19.5751211631  MEOH      2593            0.0000000000
     42289      3285  MEOH      H1A            32.2356031297      -16.3101924218       19.7815824366  MEOH      2593            0.0000000000
     42290      3285  MEOH      H1B            33.3512799730      -15.4213346015       20.8931589156  MEOH      2593            0.0000000000
     42291      3285  MEOH      H1C            32.5841474338      -17.0038923446       21.3878088989  MEOH      2593            0.0000000000
     42292      3285  MEOH      LP1A           34.0880848498      -17.4816168492       20.0256319122  MEOH      2593            0.0000000000
     42293      3285  MEOH      LP1B           34.3834077664      -16.9107290020       19.8862743121  MEOH      2593            0.0000000000
     42294      3286  MEOH      C1             -3.2173066694       23.8720965256       19.3641087029  MEOH      2594            0.0000000000
     42295      3286  MEOH      DC1            -3.2232595478       23.8775345879       19.3686711569  MEOH      2594            0.0000000000
     42296      3286  MEOH      O1             -2.4827339207       22.9181998452       20.1246132728  MEOH      2594            0.0000000000
     42297      3286  MEOH      DO1            -2.4800700483       22.9231948358       20.1243171634  MEOH      2594            0.0000000000
     42298      3286  MEOH      HO1            -2.3877658425       22.1271678856       19.5713054896  MEOH      2594            0.0000000000
     42299      3286  MEOH      HO2            -1.6977461015       23.3881703683       20.4468272278  MEOH      2594            0.0000000000
     42300      3286  MEOH      H1A            -3.4484463528       24.7560233132       19.9962233148  MEOH      2594            0.0000000000
     42301      3286  MEOH      H1B            -4.1551731819       23.4163292159       18.9806982640  MEOH      2594            0.0000000000
     42302      3286  MEOH      H1C            -2.6206255744       24.2298629001       18.4979124826  MEOH      2594            0.0000000000
     42303      3286  MEOH      LP1A           -2.1395383337       22.9608852827       20.0708104621  MEOH      2594            0.0000000000
     42304      3286  MEOH      LP1B           -2.7017969579       22.7225819378       20.3149945220  MEOH      2594            0.0000000000
     42305      3287  MEOH      C1              3.4079339007       -7.9292835598      -16.6364818815  MEOH      2595            0.0000000000
     42306      3287  MEOH      DC1             3.4133785008       -7.9328838774      -16.6470854804  MEOH      2595            0.0000000000
     42307      3287  MEOH      O1              3.1195913193       -8.3334207692      -17.9774952026  MEOH      2595            0.0000000000
     42308      3287  MEOH      DO1             3.1224929440       -8.3325764474      -17.9883827427  MEOH      2595            0.0000000000
     42309      3287  MEOH      HO1             2.3728753920       -8.9498362169      -17.9196391760  MEOH      2595            0.0000000000
     42310      3287  MEOH      HO2             3.0264410930       -7.5108474549      -18.4830604100  MEOH      2595            0.0000000000
     42311      3287  MEOH      H1A             4.2846476927       -7.2471873817      -16.6155359674  MEOH      2595            0.0000000000
     42312      3287  MEOH      H1B             3.6375947136       -8.8243559504      -16.0196980242  MEOH      2595            0.0000000000
     42313      3287  MEOH      H1C             2.5331411243       -7.4042397507      -16.1967233135  MEOH      2595            0.0000000000
     42314      3287  MEOH      LP1A            2.8898747029       -8.1125982668      -18.1222974766  MEOH      2595            0.0000000000
     42315      3287  MEOH      LP1B            3.3095617878       -8.6152523777      -18.0610545560  MEOH      2595            0.0000000000
     42316      3288  MEOH      C1            -11.8636197217      -27.3419554369       23.1137969992  MEOH      2596            0.0000000000
     42317      3288  MEOH      DC1           -11.8486523244      -27.3457569423       23.1167398478  MEOH      2596            0.0000000000
     42318      3288  MEOH      O1            -11.0199666417      -27.7111887036       22.0345773413  MEOH      2596            0.0000000000
     42319      3288  MEOH      DO1           -11.0044349000      -27.7333751791       22.0436128515  MEOH      2596            0.0000000000
     42320      3288  MEOH      HO1           -11.5614131473      -27.6321586672       21.2336466733  MEOH      2596            0.0000000000
     42321      3288  MEOH      HO2           -10.2288727063      -27.1574263579       22.1263250970  MEOH      2596            0.0000000000
     42322      3288  MEOH      H1A           -11.2679699406      -27.3296492178       24.0515447777  MEOH      2596            0.0000000000
     42323      3288  MEOH      H1B           -12.6916005178      -28.0764960439       23.2098120919  MEOH      2596            0.0000000000
     42324      3288  MEOH      H1C           -12.2908860974      -26.3301673180       22.9463179008  MEOH      2596            0.0000000000
     42325      3288  MEOH      LP1A          -10.8497766806      -27.4300906768       21.9140813809  MEOH      2596            0.0000000000
     42326      3288  MEOH      LP1B          -11.0391709651      -28.0564229629       21.9803140927  MEOH      2596            0.0000000000
     42327      3289  MEOH      C1             20.8924520667      -13.7554153074      -20.6496423746  MEOH      2597            0.0000000000
     42328      3289  MEOH      DC1            20.8814534342      -13.7579319586      -20.6155217032  MEOH      2597            0.0000000000
     42329      3289  MEOH      O1             21.4253997795      -12.5372091730      -21.1749809542  MEOH      2597            0.0000000000
     42330      3289  MEOH      DO1            21.4231175241      -12.5382901478      -21.1525287053  MEOH      2597            0.0000000000
     42331      3289  MEOH      HO1            21.1953091819      -11.7900420747      -20.6007861754  MEOH      2597            0.0000000000
     42332      3289  MEOH      HO2            22.3411419041      -12.7190410078      -21.4381416383  MEOH      2597            0.0000000000
     42333      3289  MEOH      H1A            21.0505787347      -14.5625278285      -21.3965602652  MEOH      2597            0.0000000000
     42334      3289  MEOH      H1B            19.7986302569      -13.6548453268      -20.4830274618  MEOH      2597            0.0000000000
     42335      3289  MEOH      H1C            21.4240747857      -14.0344604741      -19.7148525158  MEOH      2597            0.0000000000
     42336      3289  MEOH      LP1A           21.7487420512      -12.4849734958      -21.0516066887  MEOH      2597            0.0000000000
     42337      3289  MEOH      LP1B           21.1958120934      -12.3912286944      -21.3951608675  MEOH      2597            0.0000000000
     42338      3290  MEOH      C1             -9.4031218426       32.0272738815       18.4645230429  MEOH      2598            0.0000000000
     42339      3290  MEOH      DC1            -9.4121703225       32.0295339166       18.4752976503  MEOH      2598            0.0000000000
     42340      3290  MEOH      O1             -8.6775726789       30.9684453119       17.8414838739  MEOH      2598            0.0000000000
     42341      3290  MEOH      DO1            -8.6956730091       30.9663278163       17.8506785156  MEOH      2598            0.0000000000
     42342      3290  MEOH      HO1            -7.9441294072       30.6865830369       18.4102673346  MEOH      2598            0.0000000000
     42343      3290  MEOH      HO2            -9.3296560848       30.3431636952       17.4883406546  MEOH      2598            0.0000000000
     42344      3290  MEOH      H1A           -10.0749746135       32.5002287575       17.7166938237  MEOH      2598            0.0000000000
     42345      3290  MEOH      H1B            -8.6991946093       32.8014078028       18.8380523224  MEOH      2598            0.0000000000
     42346      3290  MEOH      H1C           -10.0055097047       31.6245257663       19.3066891900  MEOH      2598            0.0000000000
     42347      3290  MEOH      LP1A           -8.8170951205       30.6597540016       17.9294791194  MEOH      2598            0.0000000000
     42348      3290  MEOH      LP1B           -8.4234087962       31.0998962716       17.6399364455  MEOH      2598            0.0000000000
     42349      3291  MEOH      C1             28.4937636259      -29.1227888336      -28.9690244442  MEOH      2599            0.0000000000
     42350      3291  MEOH      DC1            28.4923105027      -29.1533363115      -28.9748271694  MEOH      2599            0.0000000000
     42351      3291  MEOH      O1             28.2971541467      -30.5131692096      -29.2199594478  MEOH      2599            0.0000000000
     42352      3291  MEOH      DO1            28.2986147041      -30.5362960360      -29.2132405853  MEOH      2599            0.0000000000
     42353      3291  MEOH      HO1            29.1296906367      -30.9564673932      -28.9935312805  MEOH      2599            0.0000000000
     42354      3291  MEOH      HO2            27.4569999783      -30.7503923669      -28.7971519894  MEOH      2599            0.0000000000
     42355      3291  MEOH      H1A            27.6195144852      -28.5449895581      -29.3380196186  MEOH      2599            0.0000000000
     42356      3291  MEOH      H1B            29.4065618457      -28.7587078213      -29.4872574292  MEOH      2599            0.0000000000
     42357      3291  MEOH      H1C            28.6012262944      -28.9330243331      -27.8796382825  MEOH      2599            0.0000000000
     42358      3291  MEOH      LP1A           28.1696026472      -30.6695558280      -28.9339981908  MEOH      2599            0.0000000000
     42359      3291  MEOH      LP1B           28.3809518038      -30.5880071271      -29.5514368057  MEOH      2599            0.0000000000
     42360      3292  MEOH      C1             32.6824650192       35.8294979460      -27.9546708200  MEOH      2600            0.0000000000
     42361      3292  MEOH      DC1            32.6727818915       35.8334574964      -27.9450654773  MEOH      2600            0.0000000000
     42362      3292  MEOH      O1             33.2338670174       36.5794509440      -29.0513517687  MEOH      2600            0.0000000000
     42363      3292  MEOH      DO1            33.2286224336       36.5820381818      -29.0424940236  MEOH      2600            0.0000000000
     42364      3292  MEOH      HO1            32.5603592509       37.1881956709      -29.3929906823  MEOH      2600            0.0000000000
     42365      3292  MEOH      HO2            34.1021388155       36.9054948010      -28.7672752159  MEOH      2600            0.0000000000
     42366      3292  MEOH      H1A            33.3224267764       34.9388065901      -27.7773607572  MEOH      2600            0.0000000000
     42367      3292  MEOH      H1B            31.6395249076       35.5155372133      -28.1738182178  MEOH      2600            0.0000000000
     42368      3292  MEOH      H1C            32.7023682107       36.4141345969      -27.0101472095  MEOH      2600            0.0000000000
     42369      3292  MEOH      LP1A           33.3874336737       36.8704896592      -28.9321303432  MEOH      2600            0.0000000000
     42370      3292  MEOH      LP1B           33.1820527227       36.4076906311      -29.3518741036  MEOH      2600            0.0000000000
     42371      3293  MEOH      C1             30.6384445208        5.1140302169      -20.3305114803  MEOH      2601            0.0000000000
     42372      3293  MEOH      DC1            30.6357608909        5.1054507085      -20.3159383509  MEOH      2601            0.0000000000
     42373      3293  MEOH      O1             29.7733946686        5.1072100508      -19.1935068150  MEOH      2601            0.0000000000
     42374      3293  MEOH      DO1            29.7779928801        5.1001627605      -19.1745779897  MEOH      2601            0.0000000000
     42375      3293  MEOH      HO1            29.0963342364        5.7763363724      -19.3799448415  MEOH      2601            0.0000000000
     42376      3293  MEOH      HO2            29.5118969646        4.1811833456      -19.0710588992  MEOH      2601            0.0000000000
     42377      3293  MEOH      H1A            31.4720664687        4.3992693122      -20.1616556281  MEOH      2601            0.0000000000
     42378      3293  MEOH      H1B            31.0588895427        6.1290446459      -20.4957164849  MEOH      2601            0.0000000000
     42379      3293  MEOH      H1C            30.0774814309        4.8043487125      -21.2381120409  MEOH      2601            0.0000000000
     42380      3293  MEOH      LP1A           29.5171253846        4.8733005133      -19.2394674761  MEOH      2601            0.0000000000
     42381      3293  MEOH      LP1B           29.8910941662        5.3317456046      -18.9521966135  MEOH      2601            0.0000000000
     42382      3294  MEOH      C1            -29.8553397249       19.5284302922        3.0999301859  MEOH      2602            0.0000000000
     42383      3294  MEOH      DC1           -29.8454498469       19.5428428271        3.1213071719  MEOH      2602            0.0000000000
     42384      3294  MEOH      O1            -30.6482444348       19.1326157556        1.9879075834  MEOH      2602            0.0000000000
     42385      3294  MEOH      DO1           -30.6225503422       19.1686725688        1.9785183313  MEOH      2602            0.0000000000
     42386      3294  MEOH      HO1           -30.4578666334       18.1955461684        1.8249447611  MEOH      2602            0.0000000000
     42387      3294  MEOH      HO2           -31.5599473273       19.3416085232        2.2448508855  MEOH      2602            0.0000000000
     42388      3294  MEOH      H1A           -30.2024569304       20.5238883573        3.4504924288  MEOH      2602            0.0000000000
     42389      3294  MEOH      H1B           -28.7879043085       19.6022316793        2.8008382454  MEOH      2602            0.0000000000
     42390      3294  MEOH      H1C           -29.9654069383       18.7761905214        3.9100792688  MEOH      2602            0.0000000000
     42391      3294  MEOH      LP1A          -30.9607341562       19.0196521919        2.0978594242  MEOH      2602            0.0000000000
     42392      3294  MEOH      LP1B          -30.4735565616       19.1895561278        1.6900117275  MEOH      2602            0.0000000000
     42393      3295  MEOH      C1             32.7908517903       32.2134777841      -27.7729929831  MEOH      2603            0.0000000000
     42394      3295  MEOH      DC1            32.7906279840       32.2264670009      -27.7725637289  MEOH      2603            0.0000000000
     42395      3295  MEOH      O1             32.1148749547       31.3199481780      -28.6521631009  MEOH      2603            0.0000000000
     42396      3295  MEOH      DO1            32.1158373408       31.3333514299      -28.6526813286  MEOH      2603            0.0000000000
     42397      3295  MEOH      HO1            32.0224279429       30.4675423337      -28.1985577364  MEOH      2603            0.0000000000
     42398      3295  MEOH      HO2            31.3351545183       31.8022202143      -28.9689433486  MEOH      2603            0.0000000000
     42399      3295  MEOH      H1A            33.0346589542       33.1186722073      -28.3692329713  MEOH      2603            0.0000000000
     42400      3295  MEOH      H1B            33.7424652206       31.7713213053      -27.4079580155  MEOH      2603            0.0000000000
     42401      3295  MEOH      H1C            32.1422469324       32.4797755384      -26.9111819561  MEOH      2603            0.0000000000
     42402      3295  MEOH      LP1A           31.7688440838       31.3460318995      -28.6065311402  MEOH      2603            0.0000000000
     42403      3295  MEOH      LP1B           32.3466560066       31.1519283287      -28.8535256452  MEOH      2603            0.0000000000
     42404      3296  MEOH      C1              9.0918970334       23.1638835032       34.4966525447  MEOH      2604            0.0000000000
     42405      3296  MEOH      DC1             9.0851748791       23.1635881449       34.4953201943  MEOH      2604            0.0000000000
     42406      3296  MEOH      O1              9.1272553865       23.0384545291       35.9193506648  MEOH      2604            0.0000000000
     42407      3296  MEOH      DO1             9.1197514571       23.0395077293       35.9126511900  MEOH      2604            0.0000000000
     42408      3296  MEOH      HO1             8.9871000539       23.9148633169       36.3107125444  MEOH      2604            0.0000000000
     42409      3296  MEOH      HO2             8.5412841023       22.2974898051       36.1395980982  MEOH      2604            0.0000000000
     42410      3296  MEOH      H1A             9.3495344875       22.1911699176       34.0257255600  MEOH      2604            0.0000000000
     42411      3296  MEOH      H1B             9.8423680785       23.9118847290       34.1625741451  MEOH      2604            0.0000000000
     42412      3296  MEOH      H1C             8.0786738219       23.4783062726       34.1667464279  MEOH      2604            0.0000000000
     42413      3296  MEOH      LP1A            8.8066785633       22.9689163160       36.0413954817  MEOH      2604            0.0000000000
     42414      3296  MEOH      LP1B            9.4556032619       23.0756906319       36.0346812564  MEOH      2604            0.0000000000
     42415      3297  MEOH      C1              3.9914086578      -13.4111552299       32.3278087220  MEOH      2605            0.0000000000
     42416      3297  MEOH      DC1             3.9971492028      -13.4062955673       32.3351814095  MEOH      2605            0.0000000000
     42417      3297  MEOH      O1              3.9900708373      -12.8734121648       33.6502886362  MEOH      2605            0.0000000000
     42418      3297  MEOH      DO1             3.9889185584      -12.8735392251       33.6589091674  MEOH      2605            0.0000000000
     42419      3297  MEOH      HO1             3.6666323562      -13.5760624441       34.2355835482  MEOH      2605            0.0000000000
     42420      3297  MEOH      HO2             4.8689173401      -12.4838128217       33.7796763374  MEOH      2605            0.0000000000
     42421      3297  MEOH      H1A             4.2254104072      -12.6053024163       31.5996841278  MEOH      2605            0.0000000000
     42422      3297  MEOH      H1B             2.9864942961      -13.8175296979       32.0842354937  MEOH      2605            0.0000000000
     42423      3297  MEOH      H1C             4.7484084879      -14.2193775274       32.2380926333  MEOH      2605            0.0000000000
     42424      3297  MEOH      LP1A            4.3002739175      -12.9291573528       33.8024941652  MEOH      2605            0.0000000000
     42425      3297  MEOH      LP1B            3.6836354549      -12.7175150231       33.7158129647  MEOH      2605            0.0000000000
     42426      3298  MEOH      C1             -4.0011671342        2.4247737695       -4.1957329813  MEOH      2606            0.0000000000
     42427      3298  MEOH      DC1            -3.9858125416        2.4163849072       -4.1864469493  MEOH      2606            0.0000000000
     42428      3298  MEOH      O1             -3.1014424399        3.2165732800       -4.9715024431  MEOH      2606            0.0000000000
     42429      3298  MEOH      DO1            -3.0809696508        3.2039527893       -4.9531032782  MEOH      2606            0.0000000000
     42430      3298  MEOH      HO1            -3.0484048400        4.1177985302       -4.6167066408  MEOH      2606            0.0000000000
     42431      3298  MEOH      HO2            -2.3542763701        2.6647246833       -5.2509769354  MEOH      2606            0.0000000000
     42432      3298  MEOH      H1A            -4.4318105040        1.6260684029       -4.8367766814  MEOH      2606            0.0000000000
     42433      3298  MEOH      H1B            -4.8362543669        3.0492979966       -3.8124317882  MEOH      2606            0.0000000000
     42434      3298  MEOH      H1C            -3.4529130702        1.9556147892       -3.3509677282  MEOH      2606            0.0000000000
     42435      3298  MEOH      LP1A           -2.7764454206        3.1870765641       -4.8449841393  MEOH      2606            0.0000000000
     42436      3298  MEOH      LP1B           -3.2735190513        3.3698463253       -5.2349355719  MEOH      2606            0.0000000000
     42437      3299  MEOH      C1             21.7917538486       19.1705901414        4.2230755031  MEOH      2607            0.0000000000
     42438      3299  MEOH      DC1            21.7961891622       19.1659097330        4.2385377518  MEOH      2607            0.0000000000
     42439      3299  MEOH      O1             20.9310673118       18.7550097404        3.1692558735  MEOH      2607            0.0000000000
     42440      3299  MEOH      DO1            20.9352334387       18.7514987286        3.1866502207  MEOH      2607            0.0000000000
     42441      3299  MEOH      HO1            20.0848356151       18.4620852237        3.5420656692  MEOH      2607            0.0000000000
     42442      3299  MEOH      HO2            20.9447652235       19.4829341893        2.5282891318  MEOH      2607            0.0000000000
     42443      3299  MEOH      H1A            22.7556482383       19.4678753766        3.7574038437  MEOH      2607            0.0000000000
     42444      3299  MEOH      H1B            22.0034881480       18.3371757927        4.9265739832  MEOH      2607            0.0000000000
     42445      3299  MEOH      H1C            21.3681410516       20.0499117695        4.7537982868  MEOH      2607            0.0000000000
     42446      3299  MEOH      LP1A           20.7456457282       19.0275501193        3.0516098869  MEOH      2607            0.0000000000
     42447      3299  MEOH      LP1B           20.9798253907       18.4150307480        3.1018991031  MEOH      2607            0.0000000000
     42448      3300  MEOH      C1            -26.0106561328      -12.7461607513       -0.7268933630  MEOH      2608            0.0000000000
     42449      3300  MEOH      DC1           -26.0031734492      -12.7485561216       -0.7201936193  MEOH      2608            0.0000000000
     42450      3300  MEOH      O1            -27.0752274524      -13.7006831998       -0.7741100815  MEOH      2608            0.0000000000
     42451      3300  MEOH      DO1           -27.0687335384      -13.7013512957       -0.7818772712  MEOH      2608            0.0000000000
     42452      3300  MEOH      HO1           -26.8656006794      -14.4265042822       -0.1657184526  MEOH      2608            0.0000000000
     42453      3300  MEOH      HO2           -27.8874603825      -13.1899255846       -0.6316168337  MEOH      2608            0.0000000000
     42454      3300  MEOH      H1A           -26.2447497689      -11.9004499199       -1.4082848517  MEOH      2608            0.0000000000
     42455      3300  MEOH      H1B           -25.0576823907      -13.2104896257       -1.0594001209  MEOH      2608            0.0000000000
     42456      3300  MEOH      H1C           -25.8988192436      -12.3553578336        0.3070730725  MEOH      2608            0.0000000000
     42457      3300  MEOH      LP1A          -27.3207457078      -13.6179122550       -0.5388022896  MEOH      2608            0.0000000000
     42458      3300  MEOH      LP1B          -27.0133451037      -13.9367012982       -1.0250404147  MEOH      2608            0.0000000000
     42459      3301  MEOH      C1             -4.8432099718      -34.7263150851       -8.1678779028  MEOH      2609            0.0000000000
     42460      3301  MEOH      DC1            -4.8430580965      -34.7175860500       -8.1672868913  MEOH      2609            0.0000000000
     42461      3301  MEOH      O1             -4.1743060020      -33.6560081031       -8.8433659705  MEOH      2609            0.0000000000
     42462      3301  MEOH      DO1            -4.1732822757      -33.6355381073       -8.8365614621  MEOH      2609            0.0000000000
     42463      3301  MEOH      HO1            -3.6025102602      -34.1022292048       -9.4874438836  MEOH      2609            0.0000000000
     42464      3301  MEOH      HO2            -4.8837569497      -33.0926038622       -9.1899998061  MEOH      2609            0.0000000000
     42465      3301  MEOH      H1A            -5.6210980598      -34.3225690613       -7.4850893025  MEOH      2609            0.0000000000
     42466      3301  MEOH      H1B            -4.1115334933      -35.3183220374       -7.5775404572  MEOH      2609            0.0000000000
     42467      3301  MEOH      H1C            -5.3266973852      -35.3946929193       -8.9120767955  MEOH      2609            0.0000000000
     42468      3301  MEOH      LP1A           -4.3631826170      -33.5518100719       -9.1189896172  MEOH      2609            0.0000000000
     42469      3301  MEOH      LP1B           -3.8791845398      -33.5735900132       -8.6742193447  MEOH      2609            0.0000000000
     42470      3302  MEOH      C1             -6.6320020706      -32.4885223142      -10.9120576146  MEOH      2610            0.0000000000
     42471      3302  MEOH      DC1            -6.6407960640      -32.4763720613      -10.9213723187  MEOH      2610            0.0000000000
     42472      3302  MEOH      O1             -6.0605018737      -33.3518813135      -11.8843439891  MEOH      2610            0.0000000000
     42473      3302  MEOH      DO1            -6.0667187864      -33.3441343757      -11.8877898858  MEOH      2610            0.0000000000
     42474      3302  MEOH      HO1            -5.8718534993      -32.8579428212      -12.6975700077  MEOH      2610            0.0000000000
     42475      3302  MEOH      HO2            -5.3472717733      -33.8260795346      -11.4289992065  MEOH      2610            0.0000000000
     42476      3302  MEOH      H1A            -6.9862043176      -33.0965555093      -10.0523149774  MEOH      2610            0.0000000000
     42477      3302  MEOH      H1B            -7.4890681973      -31.9472092747      -11.3667430528  MEOH      2610            0.0000000000
     42478      3302  MEOH      H1C            -5.8665095367      -31.7750189049      -10.5388886622  MEOH      2610            0.0000000000
     42479      3302  MEOH      LP1A           -5.7122866480      -33.3575517018      -11.8495014385  MEOH      2610            0.0000000000
     42480      3302  MEOH      LP1B           -6.3130756542      -33.5005079492      -12.0756986560  MEOH      2610            0.0000000000
     42481      3303  MEOH      C1            -13.0041282602      -18.3312152488        3.3179121336  MEOH      2611            0.0000000000
     42482      3303  MEOH      DC1           -13.0073673050      -18.3415374918        3.3215048661  MEOH      2611            0.0000000000
     42483      3303  MEOH      O1            -12.9629903412      -18.4764976024        4.7404988847  MEOH      2611            0.0000000000
     42484      3303  MEOH      DO1           -12.9811432394      -18.4771320675        4.7477203478  MEOH      2611            0.0000000000
     42485      3303  MEOH      HO1           -12.9834737831      -19.4288135016        4.9237333158  MEOH      2611            0.0000000000
     42486      3303  MEOH      HO2           -12.1728680862      -17.9846919930        5.0138742063  MEOH      2611            0.0000000000
     42487      3303  MEOH      H1A           -12.8770748271      -17.2617036112        3.0452891665  MEOH      2611            0.0000000000
     42488      3303  MEOH      H1B           -13.9798503888      -18.6905886048        2.9265834734  MEOH      2611            0.0000000000
     42489      3303  MEOH      H1C           -12.1811028679      -18.9111725095        2.8482316254  MEOH      2611            0.0000000000
     42490      3303  MEOH      LP1A          -12.6308203555      -18.4920195694        4.8496875708  MEOH      2611            0.0000000000
     42491      3303  MEOH      LP1B          -13.2879237504      -18.4738731586        4.8705426923  MEOH      2611            0.0000000000
     42492      3304  MEOH      C1            -15.8523704722       -6.1062764492      -34.3131718810  MEOH      2612            0.0000000000
     42493      3304  MEOH      DC1           -15.8515807445       -6.1067894506      -34.3091243149  MEOH      2612            0.0000000000
     42494      3304  MEOH      O1            -16.9876047515       -6.8035551217      -33.8096893166  MEOH      2612            0.0000000000
     42495      3304  MEOH      DO1           -16.9859387513       -6.8054407531      -33.8059678583  MEOH      2612            0.0000000000
     42496      3304  MEOH      HO1           -17.6565421493       -6.8032855717      -34.5121298377  MEOH      2612            0.0000000000
     42497      3304  MEOH      HO2           -16.6408938573       -7.6358468483      -33.4519435441  MEOH      2612            0.0000000000
     42498      3304  MEOH      H1A           -15.1089347395       -6.0471447495      -33.4896867539  MEOH      2612            0.0000000000
     42499      3304  MEOH      H1B           -16.1326764667       -5.0809548729      -34.6363826708  MEOH      2612            0.0000000000
     42500      3304  MEOH      H1C           -15.3917573608       -6.6562423710      -35.1615197157  MEOH      2612            0.0000000000
     42501      3304  MEOH      LP1A          -16.9583589320       -7.1454517286      -33.8786196602  MEOH      2612            0.0000000000
     42502      3304  MEOH      LP1B          -17.2022116449       -6.5806002940      -33.6461808273  MEOH      2612            0.0000000000
     42503      3305  MEOH      C1            -36.1473975453       -7.6312668889       15.7664175772  MEOH      2613            0.0000000000
     42504      3305  MEOH      DC1           -36.1508178614       -7.6425900952       15.7808011862  MEOH      2613            0.0000000000
     42505      3305  MEOH      O1            -36.4622072828       -6.5904513584       14.8426057432  MEOH      2613            0.0000000000
     42506      3305  MEOH      DO1           -36.4473362569       -6.5940799818       14.8481095573  MEOH      2613            0.0000000000
     42507      3305  MEOH      HO1           -36.9821955573       -5.9134515852       15.3032395473  MEOH      2613            0.0000000000
     42508      3305  MEOH      HO2           -35.6388339290       -6.3742108107       14.3776365542  MEOH      2613            0.0000000000
     42509      3305  MEOH      H1A           -35.7404564776       -8.5015652009       15.2084741964  MEOH      2613            0.0000000000
     42510      3305  MEOH      H1B           -37.0703198649       -7.9394246517       16.3026770157  MEOH      2613            0.0000000000
     42511      3305  MEOH      H1C           -35.3830429901       -7.2768286154       16.4906113535  MEOH      2613            0.0000000000
     42512      3305  MEOH      LP1A          -36.2087233111       -6.3491103827       14.8432456626  MEOH      2613            0.0000000000
     42513      3305  MEOH      LP1B          -36.7628746026       -6.6627777059       14.6786909413  MEOH      2613            0.0000000000
     42514      3306  MEOH      C1             14.3252667855       22.5627868944       25.6725194155  MEOH      2614            0.0000000000
     42515      3306  MEOH      DC1            14.3252336288       22.5616562587       25.6644598341  MEOH      2614            0.0000000000
     42516      3306  MEOH      O1             13.6526964767       22.8647873889       24.4477732900  MEOH      2614            0.0000000000
     42517      3306  MEOH      DO1            13.6495322610       22.8599672478       24.4403748764  MEOH      2614            0.0000000000
     42518      3306  MEOH      HO1            12.7107698777       22.6982082251       24.6087877771  MEOH      2614            0.0000000000
     42519      3306  MEOH      HO2            13.9438855370       23.7575932097       24.2048603476  MEOH      2614            0.0000000000
     42520      3306  MEOH      H1A            15.4194326492       22.7230471426       25.5655674739  MEOH      2614            0.0000000000
     42521      3306  MEOH      H1B            14.1394347753       21.5065732195       25.9626920159  MEOH      2614            0.0000000000
     42522      3306  MEOH      H1C            13.9701650647       23.2365334094       26.4814009899  MEOH      2614            0.0000000000
     42523      3306  MEOH      LP1A           13.5630294472       23.2030324806       24.4406964409  MEOH      2614            0.0000000000
     42524      3306  MEOH      LP1B           13.6397642276       22.5798760487       24.2448982419  MEOH      2614            0.0000000000
     42525      3307  MEOH      C1            -35.0843456842        7.7753840977        3.9586090493  MEOH      2615            0.0000000000
     42526      3307  MEOH      DC1           -35.0804561158        7.7588185023        3.9557701834  MEOH      2615            0.0000000000
     42527      3307  MEOH      O1            -35.2184653589        7.1960700895        5.2510631635  MEOH      2615            0.0000000000
     42528      3307  MEOH      DO1           -35.2044737399        7.1746631487        5.2429643547  MEOH      2615            0.0000000000
     42529      3307  MEOH      HO1           -36.0886522709        6.7731929364        5.3207026042  MEOH      2615            0.0000000000
     42530      3307  MEOH      HO2           -34.3786189712        6.7719953178        5.4871111110  MEOH      2615            0.0000000000
     42531      3307  MEOH      H1A           -34.3166073387        8.5773737136        3.9999791948  MEOH      2615            0.0000000000
     42532      3307  MEOH      H1B           -36.0509833633        8.2200421165        3.6389031763  MEOH      2615            0.0000000000
     42533      3307  MEOH      H1C           -34.7584061316        7.0042517540        3.2282397474  MEOH      2615            0.0000000000
     42534      3307  MEOH      LP1A          -35.0968321886        6.8678962769        5.2483574953  MEOH      2615            0.0000000000
     42535      3307  MEOH      LP1B          -35.3521445165        7.4304322270        5.4740077110  MEOH      2615            0.0000000000
     42536      3308  MEOH      C1            -22.0672287696      -26.3481768480      -19.2378859194  MEOH      2616            0.0000000000
     42537      3308  MEOH      DC1           -22.0603405804      -26.3488538457      -19.2316003650  MEOH      2616            0.0000000000
     42538      3308  MEOH      O1            -22.9579897191      -25.2462215176      -19.4300024416  MEOH      2616            0.0000000000
     42539      3308  MEOH      DO1           -22.9584346128      -25.2498890371      -19.4172911193  MEOH      2616            0.0000000000
     42540      3308  MEOH      HO1           -22.5023449339      -24.4332684475      -19.1609390003  MEOH      2616            0.0000000000
     42541      3308  MEOH      HO2           -23.2962975454      -25.3338838371      -20.3348577522  MEOH      2616            0.0000000000
     42542      3308  MEOH      H1A           -22.5515125096      -27.2832345652      -19.5920854752  MEOH      2616            0.0000000000
     42543      3308  MEOH      H1B           -21.8379929434      -26.4843415779      -18.1593539994  MEOH      2616            0.0000000000
     42544      3308  MEOH      H1C           -21.1306499601      -26.1750041555      -19.8098582563  MEOH      2616            0.0000000000
     42545      3308  MEOH      LP1A          -22.9234745279      -25.1195509086      -19.7544454388  MEOH      2616            0.0000000000
     42546      3308  MEOH      LP1B          -23.1497121947      -25.1955840759      -19.1415958852  MEOH      2616            0.0000000000
     42547      3309  MEOH      C1            -22.5993275766       -9.3541902430       15.5662947216  MEOH      2617            0.0000000000
     42548      3309  MEOH      DC1           -22.6009600110       -9.3698423916       15.5616886386  MEOH      2617            0.0000000000
     42549      3309  MEOH      O1            -22.2022148123      -10.7247353618       15.4057903691  MEOH      2617            0.0000000000
     42550      3309  MEOH      DO1           -22.2006873158      -10.7436282171       15.4093732403  MEOH      2617            0.0000000000
     42551      3309  MEOH      HO1           -22.4474210635      -10.9786852008       14.5023063490  MEOH      2617            0.0000000000
     42552      3309  MEOH      HO2           -21.2856692576      -10.7852967571       15.7175219261  MEOH      2617            0.0000000000
     42553      3309  MEOH      H1A           -22.5211308830       -9.0462314725       16.6308921444  MEOH      2617            0.0000000000
     42554      3309  MEOH      H1B           -23.6497278570       -9.2294594568       15.2265558756  MEOH      2617            0.0000000000
     42555      3309  MEOH      H1C           -21.9450233711       -8.6761072831       14.9777282371  MEOH      2617            0.0000000000
     42556      3309  MEOH      LP1A          -21.8722507112      -10.7410100021       15.2902099725  MEOH      2617            0.0000000000
     42557      3309  MEOH      LP1B          -22.4619998214      -10.9370873529       15.5053814374  MEOH      2617            0.0000000000
     42558      3310  MEOH      C1              9.8245571052        4.3517082096       -3.2617852678  MEOH      2618            0.0000000000
     42559      3310  MEOH      DC1             9.8260922777        4.3355172531       -3.2461465453  MEOH      2618            0.0000000000
     42560      3310  MEOH      O1             10.7555695981        3.3660208236       -2.8055494231  MEOH      2618            0.0000000000
     42561      3310  MEOH      DO1            10.7626258641        3.3579432332       -2.7938263454  MEOH      2618            0.0000000000
     42562      3310  MEOH      HO1            10.2842746460        2.5183962472       -2.8232594891  MEOH      2618            0.0000000000
     42563      3310  MEOH      HO2            11.5486387956        3.4857127475       -3.3510905227  MEOH      2618            0.0000000000
     42564      3310  MEOH      H1A            10.3055738091        5.3530661315       -3.2467438775  MEOH      2618            0.0000000000
     42565      3310  MEOH      H1B             8.9351676945        4.3732014912       -2.5963188787  MEOH      2618            0.0000000000
     42566      3310  MEOH      H1C             9.4973705855        4.1370497590       -4.3015889666  MEOH      2618            0.0000000000
     42567      3310  MEOH      LP1A           10.9372430937        3.2386019844       -3.0762137548  MEOH      2618            0.0000000000
     42568      3310  MEOH      LP1B           10.7376968956        3.3366207709       -2.4572446666  MEOH      2618            0.0000000000
     42569      3311  MEOH      C1             25.0522342075       36.3952445445      -22.8245193517  MEOH      2619            0.0000000000
     42570      3311  MEOH      DC1            25.0555340972       36.3968512449      -22.8090376812  MEOH      2619            0.0000000000
     42571      3311  MEOH      O1             25.7368295627       36.6495794923      -24.0534732089  MEOH      2619            0.0000000000
     42572      3311  MEOH      DO1            25.7389651681       36.6553803492      -24.0426252279  MEOH      2619            0.0000000000
     42573      3311  MEOH      HO1            25.7025230395       35.8468639342      -24.5969534709  MEOH      2619            0.0000000000
     42574      3311  MEOH      HO2            25.4194958801       37.5052370880      -24.3821819167  MEOH      2619            0.0000000000
     42575      3311  MEOH      H1A            25.2048551014       37.2542708616      -22.1366955009  MEOH      2619            0.0000000000
     42576      3311  MEOH      H1B            25.4539320582       35.4727190233      -22.3534498245  MEOH      2619            0.0000000000
     42577      3311  MEOH      H1C            23.9655271090       36.2691488349      -23.0181389669  MEOH      2619            0.0000000000
     42578      3311  MEOH      LP1A           25.5140159562       36.7798177681      -24.2898882851  MEOH      2619            0.0000000000
     42579      3311  MEOH      LP1B           26.0765627189       36.5726375663      -24.0193950253  MEOH      2619            0.0000000000
     42580      3312  MEOH      C1            -31.6158624531      -25.8262798730      -22.0380367793  MEOH      2620            0.0000000000
     42581      3312  MEOH      DC1           -31.6238111448      -25.7994865706      -22.0528654254  MEOH      2620            0.0000000000
     42582      3312  MEOH      O1            -31.3770322080      -24.5355483234      -22.6111291702  MEOH      2620            0.0000000000
     42583      3312  MEOH      DO1           -31.3727280306      -24.5208932171      -22.6306665174  MEOH      2620            0.0000000000
     42584      3312  MEOH      HO1           -32.2399204125      -24.1849522458      -22.8820652086  MEOH      2620            0.0000000000
     42585      3312  MEOH      HO2           -30.8447295094      -24.0534703805      -21.9590902949  MEOH      2620            0.0000000000
     42586      3312  MEOH      H1A           -30.6652881756      -26.2639649925      -21.6649935112  MEOH      2620            0.0000000000
     42587      3312  MEOH      H1B           -32.0219771658      -26.5311350029      -22.7947210504  MEOH      2620            0.0000000000
     42588      3312  MEOH      H1C           -32.3123320267      -25.7422096430      -21.1765361519  MEOH      2620            0.0000000000
     42589      3312  MEOH      LP1A          -31.3882351903      -24.2900077226      -22.3619619441  MEOH      2620            0.0000000000
     42590      3312  MEOH      LP1B          -31.3146615719      -24.5665471153      -22.9541291390  MEOH      2620            0.0000000000
     42591      3313  MEOH      C1            -23.5106184581       -9.8875569305        2.4331779148  MEOH      2621            0.0000000000
     42592      3313  MEOH      DC1           -23.5185169719       -9.8852887548        2.4236797547  MEOH      2621            0.0000000000
     42593      3313  MEOH      O1            -23.4898897265      -10.6242005255        1.2075183217  MEOH      2621            0.0000000000
     42594      3313  MEOH      DO1           -23.5036248261      -10.6235618435        1.1946332183  MEOH      2621            0.0000000000
     42595      3313  MEOH      HO1           -23.9976037185      -11.4359264231        1.3631704002  MEOH      2621            0.0000000000
     42596      3313  MEOH      HO2           -23.7086323654       -9.9999907333        0.4980017297  MEOH      2621            0.0000000000
     42597      3313  MEOH      H1A           -22.7652148796       -9.0649497047        2.3883241786  MEOH      2621            0.0000000000
     42598      3313  MEOH      H1B           -23.2454452884      -10.5485300598        3.2858904762  MEOH      2621            0.0000000000
     42599      3313  MEOH      H1C           -24.5172307057       -9.4486001159        2.6016109841  MEOH      2621            0.0000000000
     42600      3313  MEOH      LP1A          -23.7594724385      -10.5285893662        1.0058163939  MEOH      2621            0.0000000000
     42601      3313  MEOH      LP1B          -23.2105166880      -10.8348689352        1.1991800656  MEOH      2621            0.0000000000
     42602      3314  MEOH      C1             -5.8527957701       13.9565351617       31.8784280098  MEOH      2622            0.0000000000
     42603      3314  MEOH      DC1            -5.8546526346       13.9899129429       31.8915725558  MEOH      2622            0.0000000000
     42604      3314  MEOH      O1             -6.3490714356       12.6624484466       31.5509086670  MEOH      2622            0.0000000000
     42605      3314  MEOH      DO1            -6.3534467616       12.6909966496       31.5541059789  MEOH      2622            0.0000000000
     42606      3314  MEOH      HO1            -7.0620949277       12.7418244095       30.8980710476  MEOH      2622            0.0000000000
     42607      3314  MEOH      HO2            -5.5650984902       12.1352521502       31.3310212277  MEOH      2622            0.0000000000
     42608      3314  MEOH      H1A            -5.0678102794       13.8463033481       32.6568672989  MEOH      2622            0.0000000000
     42609      3314  MEOH      H1B            -6.6868544223       14.5805903502       32.2647210178  MEOH      2622            0.0000000000
     42610      3314  MEOH      H1C            -5.4043012270       14.4304120211       30.9791981351  MEOH      2622            0.0000000000
     42611      3314  MEOH      LP1A           -6.1668809431       12.5284439421       31.2837955501  MEOH      2622            0.0000000000
     42612      3314  MEOH      LP1B           -6.6071589950       12.5741785445       31.7702240474  MEOH      2622            0.0000000000
     42613      3315  MEOH      C1             -6.3494821994       -3.1466209061       -2.1500290521  MEOH      2623            0.0000000000
     42614      3315  MEOH      DC1            -6.3635518690       -3.1577482550       -2.1474902764  MEOH      2623            0.0000000000
     42615      3315  MEOH      O1             -7.7675797078       -3.2994765184       -2.3015367759  MEOH      2623            0.0000000000
     42616      3315  MEOH      DO1            -7.7697170923       -3.3076565919       -2.3012431430  MEOH      2623            0.0000000000
     42617      3315  MEOH      HO1            -8.1113385484       -3.8732292117       -1.5990143864  MEOH      2623            0.0000000000
     42618      3315  MEOH      HO2            -8.1207362754       -2.4032761674       -2.4155778631  MEOH      2623            0.0000000000
     42619      3315  MEOH      H1A            -5.9491977093       -2.5613224538       -3.0053179210  MEOH      2623            0.0000000000
     42620      3315  MEOH      H1B            -5.8407356196       -4.1342193784       -2.1378974833  MEOH      2623            0.0000000000
     42621      3315  MEOH      H1C            -6.1061205819       -2.6074833891       -1.2095893343  MEOH      2623            0.0000000000
     42622      3315  MEOH      LP1A           -7.9345802301       -3.0456833906       -2.1277556670  MEOH      2623            0.0000000000
     42623      3315  MEOH      LP1B           -7.8370231825       -3.5720095251       -2.5098715165  MEOH      2623            0.0000000000
     42624      3316  MEOH      C1            -29.4668810406       29.7290781527       18.5020415331  MEOH      2624            0.0000000000
     42625      3316  MEOH      DC1           -29.4614686053       29.7230201838       18.4924285105  MEOH      2624            0.0000000000
     42626      3316  MEOH      O1            -30.2657983951       29.0748202159       17.5110513862  MEOH      2624            0.0000000000
     42627      3316  MEOH      DO1           -30.2481734237       29.0708885170       17.4926063304  MEOH      2624            0.0000000000
     42628      3316  MEOH      HO1           -30.8237762161       28.4420467403       17.9897563892  MEOH      2624            0.0000000000
     42629      3316  MEOH      HO2           -30.7074737635       29.7887282264       17.0250902532  MEOH      2624            0.0000000000
     42630      3316  MEOH      H1A           -28.8723711440       30.5405219942       18.0304083330  MEOH      2624            0.0000000000
     42631      3316  MEOH      H1B           -28.7731049880       29.0099614830       18.9877029420  MEOH      2624            0.0000000000
     42632      3316  MEOH      H1C           -30.1242178471       30.1872635222       19.2716488954  MEOH      2624            0.0000000000
     42633      3316  MEOH      LP1A          -30.5619420089       29.2538693462       17.4587028527  MEOH      2624            0.0000000000
     42634      3316  MEOH      LP1B          -30.0982755457       28.7926056504       17.3894329913  MEOH      2624            0.0000000000
     42635      3317  MEOH      C1            -13.5927587468      -19.4093701314      -29.5081933221  MEOH      2625            0.0000000000
     42636      3317  MEOH      DC1           -13.6075617536      -19.3993284119      -29.5069129784  MEOH      2625            0.0000000000
     42637      3317  MEOH      O1            -14.6534686751      -18.7564316242      -28.8105481870  MEOH      2625            0.0000000000
     42638      3317  MEOH      DO1           -14.6646667743      -18.7529556282      -28.8062954625  MEOH      2625            0.0000000000
     42639      3317  MEOH      HO1           -14.9752094644      -18.0360827044      -29.3748887741  MEOH      2625            0.0000000000
     42640      3317  MEOH      HO2           -15.2492449119      -19.4600521936      -28.5091037122  MEOH      2625            0.0000000000
     42641      3317  MEOH      H1A           -13.1320232719      -20.1908912464      -28.8668910768  MEOH      2625            0.0000000000
     42642      3317  MEOH      H1B           -12.8013164754      -18.6790443699      -29.7812581734  MEOH      2625            0.0000000000
     42643      3317  MEOH      H1C           -13.9872403378      -19.8981997442      -30.4245725484  MEOH      2625            0.0000000000
     42644      3317  MEOH      LP1A          -14.9587150402      -18.9103289816      -28.8856498512  MEOH      2625            0.0000000000
     42645      3317  MEOH      LP1B          -14.5248089712      -18.5003169087      -28.6096702810  MEOH      2625            0.0000000000
     42646      3318  MEOH      C1            -10.8336690690       -9.2993968268        9.8661234551  MEOH      2626            0.0000000000
     42647      3318  MEOH      DC1           -10.8317093818       -9.3365625419        9.8690223867  MEOH      2626            0.0000000000
     42648      3318  MEOH      O1             -9.5731773525       -8.8508655315       10.3514120154  MEOH      2626            0.0000000000
     42649      3318  MEOH      DO1            -9.5608899416       -8.8757623645       10.3571386095  MEOH      2626            0.0000000000
     42650      3318  MEOH      HO1            -8.9268750542       -9.0196760969        9.6480654913  MEOH      2626            0.0000000000
     42651      3318  MEOH      HO2            -9.7226941641       -7.9225333369       10.5896221314  MEOH      2626            0.0000000000
     42652      3318  MEOH      H1A           -11.6322177214       -8.9785268589       10.5687496104  MEOH      2626            0.0000000000
     42653      3318  MEOH      H1B           -10.8240557188      -10.4044343255        9.7515777876  MEOH      2626            0.0000000000
     42654      3318  MEOH      H1C           -11.0633497502       -8.7972789141        8.9020459748  MEOH      2626            0.0000000000
     42655      3318  MEOH      LP1A           -9.5277156601       -8.5130085064       10.2721285678  MEOH      2626            0.0000000000
     42656      3318  MEOH      LP1B           -9.4115269443       -9.1100956115       10.5222010993  MEOH      2626            0.0000000000
     42657      3319  MEOH      C1              6.7295192951      -29.5850906732       35.2686395646  MEOH      2627            0.0000000000
     42658      3319  MEOH      DC1             6.7361626634      -29.5966208525       35.2724497108  MEOH      2627            0.0000000000
     42659      3319  MEOH      O1              7.3089510659      -28.7848181278       36.3032399470  MEOH      2627            0.0000000000
     42660      3319  MEOH      DO1             7.3238515091      -28.7937677450       36.3073924063  MEOH      2627            0.0000000000
     42661      3319  MEOH      HO1             7.3460324737      -29.3154706758       37.1143705423  MEOH      2627            0.0000000000
     42662      3319  MEOH      HO2             8.0981702466      -28.3700637216       35.9211249539  MEOH      2627            0.0000000000
     42663      3319  MEOH      H1A             6.5017811454      -28.9431089008       34.3909632349  MEOH      2627            0.0000000000
     42664      3319  MEOH      H1B             5.7818310499      -30.0416305184       35.6261019536  MEOH      2627            0.0000000000
     42665      3319  MEOH      H1C             7.4386134960      -30.3824586892       34.9592681654  MEOH      2627            0.0000000000
     42666      3319  MEOH      LP1A            7.6570500299      -28.8212255689       36.3019713059  MEOH      2627            0.0000000000
     42667      3319  MEOH      LP1B            7.0588989230      -28.6057411990       36.4702889799  MEOH      2627            0.0000000000
     42668      3320  MEOH      C1            -29.9171322936      -19.5591575720      -36.4238378721  MEOH      2628            0.0000000000
     42669      3320  MEOH      DC1           -29.9195988837      -19.5558930709      -36.4231054139  MEOH      2628            0.0000000000
     42670      3320  MEOH      O1            -28.8900053541      -20.4932043702      -36.7681038730  MEOH      2628            0.0000000000
     42671      3320  MEOH      DO1           -28.8847802701      -20.4899185378      -36.7670439808  MEOH      2628            0.0000000000
     42672      3320  MEOH      HO1           -29.2005148844      -20.9921784826      -37.5397959533  MEOH      2628            0.0000000000
     42673      3320  MEOH      HO2           -28.0616073206      -19.9893098491      -36.7954353678  MEOH      2628            0.0000000000
     42674      3320  MEOH      H1A           -29.6507396156      -19.0686916432      -35.4632135355  MEOH      2628            0.0000000000
     42675      3320  MEOH      H1B           -30.8816690098      -20.0924193336      -36.2837599744  MEOH      2628            0.0000000000
     42676      3320  MEOH      H1C           -30.0189905822      -18.7759492957      -37.2052025021  MEOH      2628            0.0000000000
     42677      3320  MEOH      LP1A          -28.6645412604      -20.3461403471      -36.9917958836  MEOH      2628            0.0000000000
     42678      3320  MEOH      LP1B          -28.9371313968      -20.7927592988      -36.5933297879  MEOH      2628            0.0000000000
     42679      3321  MEOH      C1            -13.4611958700      -11.2438374899       20.6715875147  MEOH      2629            0.0000000000
     42680      3321  MEOH      DC1           -13.4635954402      -11.2651763566       20.6597540510  MEOH      2629            0.0000000000
     42681      3321  MEOH      O1            -14.4170511296      -10.2055680735       20.4653091556  MEOH      2629            0.0000000000
     42682      3321  MEOH      DO1           -14.4311008552      -10.2362613890       20.4548747187  MEOH      2629            0.0000000000
     42683      3321  MEOH      HO1           -14.1609742546       -9.4724558953       21.0465760206  MEOH      2629            0.0000000000
     42684      3321  MEOH      HO2           -14.4380927515      -10.0608347587       19.5063985660  MEOH      2629            0.0000000000
     42685      3321  MEOH      H1A           -13.7475570710      -12.1412934833       20.0826129782  MEOH      2629            0.0000000000
     42686      3321  MEOH      H1B           -13.4247838634      -11.5061255912       21.7505685702  MEOH      2629            0.0000000000
     42687      3321  MEOH      H1C           -12.4562170545      -10.8957060713       20.3504285264  MEOH      2629            0.0000000000
     42688      3321  MEOH      LP1A          -14.3127583624       -9.9969622804       20.2043366632  MEOH      2629            0.0000000000
     42689      3321  MEOH      LP1B          -14.6872601789      -10.2464445862       20.6839782671  MEOH      2629            0.0000000000
     42690      3322  MEOH      C1             -7.3397593928       32.0719844409       21.2830951203  MEOH      2630            0.0000000000
     42691      3322  MEOH      DC1            -7.3474907748       32.0710512859       21.2835278489  MEOH      2630            0.0000000000
     42692      3322  MEOH      O1             -6.0816365540       32.6107106627       21.6626930303  MEOH      2630            0.0000000000
     42693      3322  MEOH      DO1            -6.0854826384       32.6109485796       21.6594279807  MEOH      2630            0.0000000000
     42694      3322  MEOH      HO1            -6.1492627329       32.9693298774       22.5614248918  MEOH      2630            0.0000000000
     42695      3322  MEOH      HO2            -5.4241890562       31.9253491623       21.4653547372  MEOH      2630            0.0000000000
     42696      3322  MEOH      H1A            -7.2527719254       31.7036758984       20.2385363627  MEOH      2630            0.0000000000
     42697      3322  MEOH      H1B            -8.1216950663       32.8593949431       21.3367822312  MEOH      2630            0.0000000000
     42698      3322  MEOH      H1C            -7.6052163552       31.2203557219       21.9453504537  MEOH      2630            0.0000000000
     42699      3322  MEOH      LP1A           -5.8855401560       32.3626378914       21.8127133717  MEOH      2630            0.0000000000
     42700      3322  MEOH      LP1B           -6.0612986020       32.9466080595       21.5664677397  MEOH      2630            0.0000000000
     42701      3323  MEOH      C1            -20.9819009056      -16.4832375524        2.6492502286  MEOH      2631            0.0000000000
     42702      3323  MEOH      DC1           -20.9805042666      -16.4791318400        2.6517556850  MEOH      2631            0.0000000000
     42703      3323  MEOH      O1            -21.0536720595      -17.8077098341        3.1708656391  MEOH      2631            0.0000000000
     42704      3323  MEOH      DO1           -21.0492486430      -17.8024773855        3.1878671418  MEOH      2631            0.0000000000
     42705      3323  MEOH      HO1           -21.4732606900      -18.3405090788        2.4773453823  MEOH      2631            0.0000000000
     42706      3323  MEOH      HO2           -20.1527071516      -18.0206400045        3.4603876195  MEOH      2631            0.0000000000
     42707      3323  MEOH      H1A           -20.5506110241      -15.8061366892        3.4172635487  MEOH      2631            0.0000000000
     42708      3323  MEOH      H1B           -21.9950406843      -16.1185705563        2.3755957553  MEOH      2631            0.0000000000
     42709      3323  MEOH      H1C           -20.3311140257      -16.4681553433        1.7489336367  MEOH      2631            0.0000000000
     42710      3323  MEOH      LP1A          -20.7615930515      -17.9835454081        3.0916715486  MEOH      2631            0.0000000000
     42711      3323  MEOH      LP1B          -21.3528111187      -17.8508009765        3.3473846940  MEOH      2631            0.0000000000
     42712      3324  MEOH      C1             29.0732304731       33.0474764860      -33.0541128871  MEOH      2632            0.0000000000
     42713      3324  MEOH      DC1            29.0655168358       33.0629667273      -33.0573433816  MEOH      2632            0.0000000000
     42714      3324  MEOH      O1             29.9723281622       34.1256581621      -33.2944829661  MEOH      2632            0.0000000000
     42715      3324  MEOH      DO1            29.9686689547       34.1388397339      -33.2871648446  MEOH      2632            0.0000000000
     42716      3324  MEOH      HO1            30.8455474322       33.7152027744      -33.3940544574  MEOH      2632            0.0000000000
     42717      3324  MEOH      HO2            29.5913544595       34.6359570345      -34.0261619248  MEOH      2632            0.0000000000
     42718      3324  MEOH      H1A            28.0468373493       33.4333940069      -32.8754908717  MEOH      2632            0.0000000000
     42719      3324  MEOH      H1B            29.4104152827       32.4785667410      -32.1613816247  MEOH      2632            0.0000000000
     42720      3324  MEOH      H1C            29.0556724936       32.3571486805      -33.9244348036  MEOH      2632            0.0000000000
     42721      3324  MEOH      LP1A           29.9926730744       34.1902744019      -33.6378644247  MEOH      2632            0.0000000000
     42722      3324  MEOH      LP1B           30.0943900917       34.2497053586      -32.9908167374  MEOH      2632            0.0000000000
     42723      3325  MEOH      C1             33.8648573316       13.8101619055      -15.2566085183  MEOH      2633            0.0000000000
     42724      3325  MEOH      DC1            33.8541671826       13.8030817545      -15.2633483635  MEOH      2633            0.0000000000
     42725      3325  MEOH      O1             33.9283642359       12.5663238565      -15.9619035839  MEOH      2633            0.0000000000
     42726      3325  MEOH      DO1            33.9224603838       12.5648008036      -15.9716137955  MEOH      2633            0.0000000000
     42727      3325  MEOH      HO1            34.6324935491       12.6501010888      -16.6237821885  MEOH      2633            0.0000000000
     42728      3325  MEOH      HO2            34.0049379047       11.8827984909      -15.2779229205  MEOH      2633            0.0000000000
     42729      3325  MEOH      H1A            33.1050194395       13.7557871683      -14.4478991974  MEOH      2633            0.0000000000
     42730      3325  MEOH      H1B            33.6293322219       14.6434797623      -15.9526187725  MEOH      2633            0.0000000000
     42731      3325  MEOH      H1C            34.8490768905       14.0301255521      -14.7905088993  MEOH      2633            0.0000000000
     42732      3325  MEOH      LP1A           34.1480086945       12.3476172377      -15.7993498183  MEOH      2633            0.0000000000
     42733      3325  MEOH      LP1B           33.7107819902       12.5728737130      -16.2359748625  MEOH      2633            0.0000000000
     42734      3326  MEOH      C1             29.2109236072      -19.4865033415       17.3281186817  MEOH      2634            0.0000000000
     42735      3326  MEOH      DC1            29.2143362219      -19.4844961110       17.3351939102  MEOH      2634            0.0000000000
     42736      3326  MEOH      O1             30.4901698187      -18.9770940004       17.7097522029  MEOH      2634            0.0000000000
     42737      3326  MEOH      DO1            30.4984397792      -18.9891277879       17.7179715159  MEOH      2634            0.0000000000
     42738      3326  MEOH      HO1            30.3609576747      -18.3225188705       18.4138371559  MEOH      2634            0.0000000000
     42739      3326  MEOH      HO2            31.0806862482      -19.7388835948       17.8186877874  MEOH      2634            0.0000000000
     42740      3326  MEOH      H1A            29.3155798881      -20.0699109323       16.3884359437  MEOH      2634            0.0000000000
     42741      3326  MEOH      H1B            28.4998676212      -18.6517735709       17.1493825760  MEOH      2634            0.0000000000
     42742      3326  MEOH      H1C            28.8120194007      -20.1500830344       18.1248987174  MEOH      2634            0.0000000000
     42743      3326  MEOH      LP1A           30.6270712941      -19.1753264991       17.9636456107  MEOH      2634            0.0000000000
     42744      3326  MEOH      LP1B           30.5726401356      -18.7003099719       17.5120421921  MEOH      2634            0.0000000000
     42745      3327  MEOH      C1             21.7967899412       12.8919399467       16.6723856358  MEOH      2635            0.0000000000
     42746      3327  MEOH      DC1            21.7994351607       12.8976276544       16.6626590399  MEOH      2635            0.0000000000
     42747      3327  MEOH      O1             21.7729542463       14.2127384335       16.1279718076  MEOH      2635            0.0000000000
     42748      3327  MEOH      DO1            21.7784484328       14.2210064741       16.1322443449  MEOH      2635            0.0000000000
     42749      3327  MEOH      HO1            21.0002342233       14.6584897717       16.5089042312  MEOH      2635            0.0000000000
     42750      3327  MEOH      HO2            22.6653688297       14.5715359634       16.2535128120  MEOH      2635            0.0000000000
     42751      3327  MEOH      H1A            22.6194919641       12.3021504617       16.2145311319  MEOH      2635            0.0000000000
     42752      3327  MEOH      H1B            20.8517634157       12.3624008594       16.4257396920  MEOH      2635            0.0000000000
     42753      3327  MEOH      H1C            21.9338114829       12.9310664288       17.7742092222  MEOH      2635            0.0000000000
     42754      3327  MEOH      LP1A           21.9605187289       14.4287371804       16.3296252386  MEOH      2635            0.0000000000
     42755      3327  MEOH      LP1B           21.5908891925       14.2157444533       15.8290683448  MEOH      2635            0.0000000000
     42756      3328  MEOH      C1             34.9881175533       26.6258105614      -20.7989536514  MEOH      2636            0.0000000000
     42757      3328  MEOH      DC1            34.9792189257       26.6300392410      -20.8022205644  MEOH      2636            0.0000000000
     42758      3328  MEOH      O1             34.1107412234       27.7222137239      -21.0661719507  MEOH      2636            0.0000000000
     42759      3328  MEOH      DO1            34.1058671377       27.7327749743      -21.0545348850  MEOH      2636            0.0000000000
     42760      3328  MEOH      HO1            33.4449237355       27.7375333552      -20.3609398024  MEOH      2636            0.0000000000
     42761      3328  MEOH      HO2            34.6758882651       28.4890888099      -21.2489598707  MEOH      2636            0.0000000000
     42762      3328  MEOH      H1A            35.6549258451       26.4583977203      -21.6716853646  MEOH      2636            0.0000000000
     42763      3328  MEOH      H1B            34.3997905510       25.7025586750      -20.6097492842  MEOH      2636            0.0000000000
     42764      3328  MEOH      H1C            35.6165938539       26.8434234544      -19.9090192890  MEOH      2636            0.0000000000
     42765      3328  MEOH      LP1A           34.2333900930       28.0132123813      -20.9152513218  MEOH      2636            0.0000000000
     42766      3328  MEOH      LP1B           33.8472000635       27.6174036925      -21.2712595281  MEOH      2636            0.0000000000
     42767      3329  MEOH      C1            -21.4256804281       17.9718270879      -35.5047528594  MEOH      2637            0.0000000000
     42768      3329  MEOH      DC1           -21.4305407007       17.9805874416      -35.5014951858  MEOH      2637            0.0000000000
     42769      3329  MEOH      O1            -22.6845263485       17.5620740342      -36.0461409884  MEOH      2637            0.0000000000
     42770      3329  MEOH      DO1           -22.6911315700       17.5710603708      -36.0409390360  MEOH      2637            0.0000000000
     42771      3329  MEOH      HO1           -23.2299820839       18.3550776047      -36.1666539700  MEOH      2637            0.0000000000
     42772      3329  MEOH      HO2           -22.4677124201       17.0123423049      -36.8153527579  MEOH      2637            0.0000000000
     42773      3329  MEOH      H1A           -20.7841422776       17.0788855007      -35.3453630129  MEOH      2637            0.0000000000
     42774      3329  MEOH      H1B           -21.5745802483       18.4786132264      -34.5273493321  MEOH      2637            0.0000000000
     42775      3329  MEOH      H1C           -20.9117066423       18.6579884701      -36.2113889084  MEOH      2637            0.0000000000
     42776      3329  MEOH      LP1A          -22.6688746490       17.5580879439      -36.3957681261  MEOH      2637            0.0000000000
     42777      3329  MEOH      LP1B          -22.9073796281       17.4865439234      -35.7870432885  MEOH      2637            0.0000000000
     42778      3330  MEOH      C1              1.1131762766      -34.9081057664      -16.1522499837  MEOH      2638            0.0000000000
     42779      3330  MEOH      DC1             1.1239252863      -34.9078615729      -16.1399926888  MEOH      2638            0.0000000000
     42780      3330  MEOH      O1              0.3310033481      -34.0541251155      -15.3159982852  MEOH      2638            0.0000000000
     42781      3330  MEOH      DO1             0.3441884604      -34.0616406890      -15.3046577459  MEOH      2638            0.0000000000
     42782      3330  MEOH      HO1             0.4427494267      -33.1479246719      -15.6434331185  MEOH      2638            0.0000000000
     42783      3330  MEOH      HO2            -0.5613820892      -34.4340267719      -15.3309302424  MEOH      2638            0.0000000000
     42784      3330  MEOH      H1A             0.9057258126      -35.9708775209      -15.9036509029  MEOH      2638            0.0000000000
     42785      3330  MEOH      H1B             2.1958122798      -34.6968101604      -16.0196813091  MEOH      2638            0.0000000000
     42786      3330  MEOH      H1C             0.8371170178      -34.7547578649      -17.2174244800  MEOH      2638            0.0000000000
     42787      3330  MEOH      LP1A            0.0058590181      -34.0275456703      -15.4427843164  MEOH      2638            0.0000000000
     42788      3330  MEOH      LP1B            0.5217033290      -33.9466647342      -15.0428943055  MEOH      2638            0.0000000000
     42789      3331  MEOH      C1            -22.0234316122       -6.5647501467      -12.9109112804  MEOH      2639            0.0000000000
     42790      3331  MEOH      DC1           -22.0341519187       -6.5725922129      -12.8907353184  MEOH      2639            0.0000000000
     42791      3331  MEOH      O1            -22.7566387270       -7.7116072653      -13.3380332823  MEOH      2639            0.0000000000
     42792      3331  MEOH      DO1           -22.7636807457       -7.7183968601      -13.3232840837  MEOH      2639            0.0000000000
     42793      3331  MEOH      HO1           -23.6956469668       -7.5106141115      -13.2010468678  MEOH      2639            0.0000000000
     42794      3331  MEOH      HO2           -22.4430737595       -7.8812943267      -14.2401326743  MEOH      2639            0.0000000000
     42795      3331  MEOH      H1A           -20.9390062266       -6.7177923842      -13.0977819773  MEOH      2639            0.0000000000
     42796      3331  MEOH      H1B           -22.1822087295       -6.3854721080      -11.8260287006  MEOH      2639            0.0000000000
     42797      3331  MEOH      H1C           -22.3448732809       -5.6743071445      -13.4923814132  MEOH      2639            0.0000000000
     42798      3331  MEOH      LP1A          -22.8309318896       -7.6859988686      -13.6790974053  MEOH      2639            0.0000000000
     42799      3331  MEOH      LP1B          -22.7955614254       -7.9349441721      -13.0713768561  MEOH      2639            0.0000000000
     42800      3332  MEOH      C1             24.0963190827      -14.7136514127      -36.9673668011  MEOH      2640            0.0000000000
     42801      3332  MEOH      DC1            24.0786363180      -14.7241158306      -36.9845612503  MEOH      2640            0.0000000000
     42802      3332  MEOH      O1             23.0290558700      -15.6296399996      -37.2163522520  MEOH      2640            0.0000000000
     42803      3332  MEOH      DO1            23.0262239916      -15.6485462729      -37.2476032124  MEOH      2640            0.0000000000
     42804      3332  MEOH      HO1            23.1777792498      -16.3414232011      -36.5743662467  MEOH      2640            0.0000000000
     42805      3332  MEOH      HO2            22.2227127571      -15.1033877936      -37.0990091655  MEOH      2640            0.0000000000
     42806      3332  MEOH      H1A            23.8848574648      -13.7414056622      -37.4616776191  MEOH      2640            0.0000000000
     42807      3332  MEOH      H1B            25.0527799933      -15.1380489188      -37.3407168838  MEOH      2640            0.0000000000
     42808      3332  MEOH      H1C            24.2188298812      -14.5223061779      -35.8798470975  MEOH      2640            0.0000000000
     42809      3332  MEOH      LP1A           22.7504991834      -15.5444876591      -37.0223026417  MEOH      2640            0.0000000000
     42810      3332  MEOH      LP1B           23.1247775177      -15.8614768210      -37.4604609459  MEOH      2640            0.0000000000
     42811      3333  MEOH      C1            -28.7678780128      -19.2848067392       30.3976643281  MEOH      2641            0.0000000000
     42812      3333  MEOH      DC1           -28.7629213453      -19.2878471123       30.3964684279  MEOH      2641            0.0000000000
     42813      3333  MEOH      O1            -29.9118215236      -18.4380105536       30.5102003915  MEOH      2641            0.0000000000
     42814      3333  MEOH      DO1           -29.9071841978      -18.4381690829       30.5113291068  MEOH      2641            0.0000000000
     42815      3333  MEOH      HO1           -29.6806615018      -17.5728039516       30.1375308587  MEOH      2641            0.0000000000
     42816      3333  MEOH      HO2           -30.6531584641      -18.9440553550       30.1424529243  MEOH      2641            0.0000000000
     42817      3333  MEOH      H1A           -28.9904316801      -20.2582881680       30.8846189193  MEOH      2641            0.0000000000
     42818      3333  MEOH      H1B           -27.8897019999      -18.8286892197       30.9027234322  MEOH      2641            0.0000000000
     42819      3333  MEOH      H1C           -28.5285816197      -19.4544005834       29.3260785095  MEOH      2641            0.0000000000
     42820      3333  MEOH      LP1A          -30.1137203749      -18.4711927621       30.2262359661  MEOH      2641            0.0000000000
     42821      3333  MEOH      LP1B          -29.9076038846      -18.2713869310       30.8179645543  MEOH      2641            0.0000000000
     42822      3334  MEOH      C1            -17.8046398377      -36.4620310596      -13.6483592963  MEOH      2642            0.0000000000
     42823      3334  MEOH      DC1           -17.8049566234      -36.4474029020      -13.6597353317  MEOH      2642            0.0000000000
     42824      3334  MEOH      O1            -19.2154664670      -36.3638876732      -13.8484744835  MEOH      2642            0.0000000000
     42825      3334  MEOH      DO1           -19.2124439981      -36.3450965322      -13.8456830862  MEOH      2642            0.0000000000
     42826      3334  MEOH      HO1           -19.3995713153      -35.9397355410      -14.7011762917  MEOH      2642            0.0000000000
     42827      3334  MEOH      HO2           -19.5476646480      -37.2640246215      -13.7060039824  MEOH      2642            0.0000000000
     42828      3334  MEOH      H1A           -17.6018821162      -37.0046334242      -12.7003123669  MEOH      2642            0.0000000000
     42829      3334  MEOH      H1B           -17.3605995909      -35.4453630696      -13.5888995691  MEOH      2642            0.0000000000
     42830      3334  MEOH      H1C           -17.3393399122      -37.0389411577      -14.4760015612  MEOH      2642            0.0000000000
     42831      3334  MEOH      LP1A          -19.3343017633      -36.6525915641      -14.0066776305  MEOH      2642            0.0000000000
     42832      3334  MEOH      LP1B          -19.3349037302      -36.0637864963      -13.7136634166  MEOH      2642            0.0000000000
     42833      3335  MEOH      C1             11.0512305876      -13.1315874243      -20.7357218941  MEOH      2643            0.0000000000
     42834      3335  MEOH      DC1            11.0551156324      -13.1258726859      -20.7242213559  MEOH      2643            0.0000000000
     42835      3335  MEOH      O1             10.2441546667      -14.3093555345      -20.6911439254  MEOH      2643            0.0000000000
     42836      3335  MEOH      DO1            10.2366626079      -14.3041522051      -20.6730222226  MEOH      2643            0.0000000000
     42837      3335  MEOH      HO1             9.9351314683      -14.4616296145      -21.5979058942  MEOH      2643            0.0000000000
     42838      3335  MEOH      HO2            10.8025077589      -14.9822734567      -20.2712352516  MEOH      2643            0.0000000000
     42839      3335  MEOH      H1A            11.5606087012      -12.9920639743      -19.7582823081  MEOH      2643            0.0000000000
     42840      3335  MEOH      H1B            10.4150795606      -12.2477697754      -20.9559473144  MEOH      2643            0.0000000000
     42841      3335  MEOH      H1C            11.8298262832      -13.2242411533      -21.5228210174  MEOH      2643            0.0000000000
     42842      3335  MEOH      LP1A           10.4431933919      -14.5928364523      -20.7413649877  MEOH      2643            0.0000000000
     42843      3335  MEOH      LP1B            9.9117638800      -14.2241581461      -20.6221673357  MEOH      2643            0.0000000000
     42844      3336  MEOH      C1            -18.2964514713       -5.7742552072       -0.4704172960  MEOH      2644            0.0000000000
     42845      3336  MEOH      DC1           -18.3067741189       -5.7842387670       -0.4925459168  MEOH      2644            0.0000000000
     42846      3336  MEOH      O1            -16.9901791293       -6.0756626156       -0.9626657993  MEOH      2644            0.0000000000
     42847      3336  MEOH      DO1           -17.0107239119       -6.0895481956       -0.9963622351  MEOH      2644            0.0000000000
     42848      3336  MEOH      HO1           -16.7210473095       -6.9715577953       -0.7060729494  MEOH      2644            0.0000000000
     42849      3336  MEOH      HO2           -16.8760724342       -5.6563953844       -1.8298997080  MEOH      2644            0.0000000000
     42850      3336  MEOH      H1A           -18.3733706961       -4.6761850458       -0.3199302404  MEOH      2644            0.0000000000
     42851      3336  MEOH      H1B           -18.4610036690       -6.2661559882        0.5120679181  MEOH      2644            0.0000000000
     42852      3336  MEOH      H1C           -19.0757344914       -6.0933933599       -1.1951171065  MEOH      2644            0.0000000000
     42853      3336  MEOH      LP1A          -17.0121360411       -6.2145873938       -1.2831619771  MEOH      2644            0.0000000000
     42854      3336  MEOH      LP1B          -16.7486242877       -5.9768411504       -0.7294586456  MEOH      2644            0.0000000000
     42855      3337  MEOH      C1            -33.6135458826       17.4162710015      -26.2220939662  MEOH      2645            0.0000000000
     42856      3337  MEOH      DC1           -33.6054083104       17.4122761824      -26.2205439736  MEOH      2645            0.0000000000
     42857      3337  MEOH      O1            -32.6739197930       17.2476916955      -27.2869989347  MEOH      2645            0.0000000000
     42858      3337  MEOH      DO1           -32.6568089231       17.2490026968      -27.2754525076  MEOH      2645            0.0000000000
     42859      3337  MEOH      HO1           -33.1819990919       16.9478799536      -28.0569783795  MEOH      2645            0.0000000000
     42860      3337  MEOH      HO2           -32.1962225536       18.0898790225      -27.3455297319  MEOH      2645            0.0000000000
     42861      3337  MEOH      H1A           -33.0955463828       17.7975419536      -25.3162076713  MEOH      2645            0.0000000000
     42862      3337  MEOH      H1B           -34.1008860382       16.4476819330      -25.9799043889  MEOH      2645            0.0000000000
     42863      3337  MEOH      H1C           -34.3954136861       18.1466694158      -26.5212960633  MEOH      2645            0.0000000000
     42864      3337  MEOH      LP1A          -32.6378539506       17.5477991723      -27.4634493736  MEOH      2645            0.0000000000
     42865      3337  MEOH      LP1B          -32.5441893365       16.9226633677      -27.2818419243  MEOH      2645            0.0000000000
     42866      3338  MEOH      C1              5.4872677183        4.1071319795       31.4563984568  MEOH      2646            0.0000000000
     42867      3338  MEOH      DC1             5.5003409259        4.1142298892       31.4312885036  MEOH      2646            0.0000000000
     42868      3338  MEOH      O1              6.0834628599        5.3452428217       31.0751384351  MEOH      2646            0.0000000000
     42869      3338  MEOH      DO1             6.0888280282        5.3582940673       31.0556286456  MEOH      2646            0.0000000000
     42870      3338  MEOH      HO1             6.2208940661        5.7879861797       31.9271894796  MEOH      2646            0.0000000000
     42871      3338  MEOH      HO2             6.8406595730        5.1112438300       30.5158553131  MEOH      2646            0.0000000000
     42872      3338  MEOH      H1A             5.2754501742        3.4567827309       30.5808984951  MEOH      2646            0.0000000000
     42873      3338  MEOH      H1B             4.5349801128        4.3101405277       31.9914282198  MEOH      2646            0.0000000000
     42874      3338  MEOH      H1C             6.1714618403        3.5549823400       32.1356113687  MEOH      2646            0.0000000000
     42875      3338  MEOH      LP1A            6.4314781196        5.3110292692       31.0604819738  MEOH      2646            0.0000000000
     42876      3338  MEOH      LP1B            5.8349560935        5.5841951938       31.0147550687  MEOH      2646            0.0000000000
     42877      3339  MEOH      C1            -11.3861596969       16.6978872540      -24.6916075682  MEOH      2647            0.0000000000
     42878      3339  MEOH      DC1           -11.3892169090       16.7121946933      -24.6917454801  MEOH      2647            0.0000000000
     42879      3339  MEOH      O1            -11.5367743301       15.4941854140      -25.4450823029  MEOH      2647            0.0000000000
     42880      3339  MEOH      DO1           -11.5339257987       15.5069340660      -25.4460532441  MEOH      2647            0.0000000000
     42881      3339  MEOH      HO1           -11.5723829497       14.7418973442      -24.8337765805  MEOH      2647            0.0000000000
     42882      3339  MEOH      HO2           -12.2526936158       15.6549869923      -26.0795130955  MEOH      2647            0.0000000000
     42883      3339  MEOH      H1A           -11.2238892076       17.5474745616      -25.3888813275  MEOH      2647            0.0000000000
     42884      3339  MEOH      H1B           -10.5097508891       16.6155187939      -24.0137845541  MEOH      2647            0.0000000000
     42885      3339  MEOH      H1C           -12.3049309982       16.8846728890      -24.0955442967  MEOH      2647            0.0000000000
     42886      3339  MEOH      LP1A          -11.8763921667       15.4261761489      -25.4954257722  MEOH      2647            0.0000000000
     42887      3339  MEOH      LP1B          -11.2223778836       15.3664802411      -25.5307926479  MEOH      2647            0.0000000000
     42888      3340  MEOH      C1             29.1227867457      -27.9070155883      -34.2229752855  MEOH      2648            0.0000000000
     42889      3340  MEOH      DC1            29.1219640304      -27.9100929434      -34.2254668586  MEOH      2648            0.0000000000
     42890      3340  MEOH      O1             28.9330843877      -26.4904076144      -34.2221177304  MEOH      2648            0.0000000000
     42891      3340  MEOH      DO1            28.9304955453      -26.4943978545      -34.2305282773  MEOH      2648            0.0000000000
     42892      3340  MEOH      HO1            29.4294435549      -26.1210428558      -34.9691767996  MEOH      2648            0.0000000000
     42893      3340  MEOH      HO2            27.9787273436      -26.3405569481      -34.1346682582  MEOH      2648            0.0000000000
     42894      3340  MEOH      H1A            28.6838028819      -28.3459861478      -33.3016072726  MEOH      2648            0.0000000000
     42895      3340  MEOH      H1B            30.2086151243      -28.1419227402      -34.2337625315  MEOH      2648            0.0000000000
     42896      3340  MEOH      H1C            28.6261769631      -28.3581174488      -35.1085298213  MEOH      2648            0.0000000000
     42897      3340  MEOH      LP1A           28.6498391203      -26.4074483447      -34.4102397069  MEOH      2648            0.0000000000
     42898      3340  MEOH      LP1B           29.1778807584      -26.3369701331      -34.0245533707  MEOH      2648            0.0000000000
     42899      3341  MEOH      C1            -23.1105981924       10.5074103182       -1.5099897010  MEOH      2649            0.0000000000
     42900      3341  MEOH      DC1           -23.1224663687       10.5139024563       -1.5041316998  MEOH      2649            0.0000000000
     42901      3341  MEOH      O1            -22.3131488860       10.0839488538       -2.6169479462  MEOH      2649            0.0000000000
     42902      3341  MEOH      DO1           -22.3257513138       10.0802964732       -2.6159027265  MEOH      2649            0.0000000000
     42903      3341  MEOH      HO1           -21.7017857250       10.8074113406       -2.8260821509  MEOH      2649            0.0000000000
     42904      3341  MEOH      HO2           -21.9560685973        9.2188418659       -2.3620291992  MEOH      2649            0.0000000000
     42905      3341  MEOH      H1A           -23.8553464309        9.7228976584       -1.2565909079  MEOH      2649            0.0000000000
     42906      3341  MEOH      H1B           -23.6338347885       11.4531923993       -1.7669735908  MEOH      2649            0.0000000000
     42907      3341  MEOH      H1C           -22.4641059300       10.6750181510       -0.6221404058  MEOH      2649            0.0000000000
     42908      3341  MEOH      LP1A          -22.0280052123        9.9166653422       -2.5020161746  MEOH      2649            0.0000000000
     42909      3341  MEOH      LP1B          -22.4702211606       10.1702299091       -2.9175870655  MEOH      2649            0.0000000000
     42910      3342  MEOH      C1             11.2298892484       35.4673791154       13.0459402382  MEOH      2650            0.0000000000
     42911      3342  MEOH      DC1            11.2305904498       35.4647193596       13.0555331715  MEOH      2650            0.0000000000
     42912      3342  MEOH      O1             11.8491462662       36.7205265884       13.3146173531  MEOH      2650            0.0000000000
     42913      3342  MEOH      DO1            11.8515972007       36.7171684590       13.3446147707  MEOH      2650            0.0000000000
     42914      3342  MEOH      HO1            11.9735326174       37.1282277970       12.4432920633  MEOH      2650            0.0000000000
     42915      3342  MEOH      HO2            11.2173729773       37.1912976146       13.8804239917  MEOH      2650            0.0000000000
     42916      3342  MEOH      H1A            10.7816724635       35.0697488929       13.9815218329  MEOH      2650            0.0000000000
     42917      3342  MEOH      H1B            11.9984424792       34.7607276041       12.6660842487  MEOH      2650            0.0000000000
     42918      3342  MEOH      H1C            10.4339118912       35.5890331627       12.2804721847  MEOH      2650            0.0000000000
     42919      3342  MEOH      LP1A           11.6050904940       36.9659462697       13.3666361967  MEOH      2650            0.0000000000
     42920      3342  MEOH      LP1B           12.1971620485       36.6835736581       13.3190328101  MEOH      2650            0.0000000000
     42921      3343  MEOH      C1              9.1339377617       -8.3230771004       -8.6160108506  MEOH      2651            0.0000000000
     42922      3343  MEOH      DC1             9.1379784618       -8.3400395540       -8.5987615234  MEOH      2651            0.0000000000
     42923      3343  MEOH      O1              7.9721389052       -7.9318780426       -9.3483680918  MEOH      2651            0.0000000000
     42924      3343  MEOH      DO1             7.9753768979       -7.9556992285       -9.3377242008  MEOH      2651            0.0000000000
     42925      3343  MEOH      HO1             8.0692106901       -6.9896047140       -9.5571695376  MEOH      2651            0.0000000000
     42926      3343  MEOH      HO2             7.8683023239       -8.5827861809      -10.0600116542  MEOH      2651            0.0000000000
     42927      3343  MEOH      H1A             9.0440347061       -9.3866502861       -8.3077082078  MEOH      2651            0.0000000000
     42928      3343  MEOH      H1B             9.2451792507       -7.6947931577       -7.7065024018  MEOH      2651            0.0000000000
     42929      3343  MEOH      H1C            10.0337657047       -8.2013017296       -9.2561682013  MEOH      2651            0.0000000000
     42930      3343  MEOH      LP1A            8.0238718201       -7.9823736718       -9.6908208578  MEOH      2651            0.0000000000
     42931      3343  MEOH      LP1B            7.7215341783       -7.8264950342       -9.1279328579  MEOH      2651            0.0000000000
     42932      3344  MEOH      C1              8.9128024005       14.2563097074      -34.7721678746  MEOH      2652            0.0000000000
     42933      3344  MEOH      DC1             8.9100187585       14.2670930115      -34.7793351321  MEOH      2652            0.0000000000
     42934      3344  MEOH      O1             10.0845147243       14.4398397630      -35.5668685463  MEOH      2652            0.0000000000
     42935      3344  MEOH      DO1            10.0878455648       14.4485813125      -35.5621224255  MEOH      2652            0.0000000000
     42936      3344  MEOH      HO1            10.6296991303       15.1138240887      -35.1316455090  MEOH      2652            0.0000000000
     42937      3344  MEOH      HO2            10.4428288213       13.5485837345      -35.7016784139  MEOH      2652            0.0000000000
     42938      3344  MEOH      H1A             8.2609929055       13.4959736355      -35.2531610554  MEOH      2652            0.0000000000
     42939      3344  MEOH      H1B             8.3592686799       15.2118790535      -34.6504770914  MEOH      2652            0.0000000000
     42940      3344  MEOH      H1C             9.1773211491       13.8842958705      -33.7592727480  MEOH      2652            0.0000000000
     42941      3344  MEOH      LP1A           10.3341239630       14.2164184515      -35.4654873570  MEOH      2652            0.0000000000
     42942      3344  MEOH      LP1B           10.0276080301       14.6861405000      -35.8089379065  MEOH      2652            0.0000000000
     42943      3345  MEOH      C1             14.3653695109       13.3919357436        7.6299450989  MEOH      2653            0.0000000000
     42944      3345  MEOH      DC1            14.3785643627       13.3901432854        7.6265473423  MEOH      2653            0.0000000000
     42945      3345  MEOH      O1             15.2914755081       13.6498643559        6.5866908466  MEOH      2653            0.0000000000
     42946      3345  MEOH      DO1            15.3081374879       13.6409465086        6.5869770079  MEOH      2653            0.0000000000
     42947      3345  MEOH      HO1            15.6394567709       12.7826925950        6.3262639320  MEOH      2653            0.0000000000
     42948      3345  MEOH      HO2            14.7884253703       14.1698282458        5.9405653846  MEOH      2653            0.0000000000
     42949      3345  MEOH      H1A            13.8996879098       14.3429676264        7.9660998326  MEOH      2653            0.0000000000
     42950      3345  MEOH      H1B            14.8898162434       12.9124765102        8.4839916248  MEOH      2653            0.0000000000
     42951      3345  MEOH      H1C            13.5583160669       12.7198680178        7.2675768988  MEOH      2653            0.0000000000
     42952      3345  MEOH      LP1A           15.1273942836       13.6470147558        6.2775481101  MEOH      2653            0.0000000000
     42953      3345  MEOH      LP1B           15.6096654794       13.7074815106        6.7206139800  MEOH      2653            0.0000000000
     42954      3346  MEOH      C1            -25.0586560282       29.4652975855       12.1462836577  MEOH      2654            0.0000000000
     42955      3346  MEOH      DC1           -25.0571872315       29.4739586104       12.1396702034  MEOH      2654            0.0000000000
     42956      3346  MEOH      O1            -25.3596887131       30.8528825315       11.9673119344  MEOH      2654            0.0000000000
     42957      3346  MEOH      DO1           -25.3574154066       30.8637469688       11.9572764613  MEOH      2654            0.0000000000
     42958      3346  MEOH      HO1           -25.4530206875       31.2199258155       12.8603227799  MEOH      2654            0.0000000000
     42959      3346  MEOH      HO2           -24.6877763840       31.1986852641       11.3591554638  MEOH      2654            0.0000000000
     42960      3346  MEOH      H1A           -25.0254567305       28.9527728691       11.1611251821  MEOH      2654            0.0000000000
     42961      3346  MEOH      H1B           -25.8371773744       28.9827550082       12.7750746998  MEOH      2654            0.0000000000
     42962      3346  MEOH      H1C           -24.0689887322       29.3468497824       12.6370481247  MEOH      2654            0.0000000000
     42963      3346  MEOH      LP1A          -25.0634281458       31.0385547862       11.9513278766  MEOH      2654            0.0000000000
     42964      3346  MEOH      LP1B          -25.7058449107       30.8979768208       11.9419664820  MEOH      2654            0.0000000000
     42965      3347  MEOH      C1              9.9950442805       27.3103249587       26.7435967109  MEOH      2655            0.0000000000
     42966      3347  MEOH      DC1             9.9888953539       27.2998264428       26.7590263740  MEOH      2655            0.0000000000
     42967      3347  MEOH      O1             10.8707757676       27.8344624731       25.7430513879  MEOH      2655            0.0000000000
     42968      3347  MEOH      DO1            10.8665066042       27.8231233056       25.7533595498  MEOH      2655            0.0000000000
     42969      3347  MEOH      HO1            11.1216256524       28.7400545113       25.9836286037  MEOH      2655            0.0000000000
     42970      3347  MEOH      HO2            11.5369664608       27.1510026548       25.5699253153  MEOH      2655            0.0000000000
     42971      3347  MEOH      H1A             9.5724426504       26.3469808914       26.3862494392  MEOH      2655            0.0000000000
     42972      3347  MEOH      H1B             9.1608694039       28.0202703861       26.9292058861  MEOH      2655            0.0000000000
     42973      3347  MEOH      H1C            10.5528020707       27.1114817136       27.6836438434  MEOH      2655            0.0000000000
     42974      3347  MEOH      LP1A           11.2028645504       27.7575339837       25.8224179293  MEOH      2655            0.0000000000
     42975      3347  MEOH      LP1B           10.6846763342       27.9893060037       25.4902857219  MEOH      2655            0.0000000000
     42976      3348  MEOH      C1             33.1689272162       22.0826403380      -34.6015940515  MEOH      2656            0.0000000000
     42977      3348  MEOH      DC1            33.1755092188       22.0724339784      -34.6171299962  MEOH      2656            0.0000000000
     42978      3348  MEOH      O1             33.3528795326       20.7834799849      -35.1580917097  MEOH      2656            0.0000000000
     42979      3348  MEOH      DO1            33.3582957683       20.7762926266      -35.1586511830  MEOH      2656            0.0000000000
     42980      3348  MEOH      HO1            33.8732652438       20.2863614027      -34.5077288663  MEOH      2656            0.0000000000
     42981      3348  MEOH      HO2            32.4644207972       20.4763923855      -35.3973369430  MEOH      2656            0.0000000000
     42982      3348  MEOH      H1A            32.5428926463       22.7063177310      -35.2749648459  MEOH      2656            0.0000000000
     42983      3348  MEOH      H1B            34.1497305408       22.5858847646      -34.4634242745  MEOH      2656            0.0000000000
     42984      3348  MEOH      H1C            32.6790982658       21.9881491621      -33.6088906629  MEOH      2656            0.0000000000
     42985      3348  MEOH      LP1A           33.0878946894       20.5746971281      -35.0648567829  MEOH      2656            0.0000000000
     42986      3348  MEOH      LP1B           33.6427828651       20.7771599630      -35.3540920034  MEOH      2656            0.0000000000
     42987      3349  MEOH      C1             -4.8736103012       10.8893845145       35.0373977209  MEOH      2657            0.0000000000
     42988      3349  MEOH      DC1            -4.8750531164       10.9300535567       35.0412946716  MEOH      2657            0.0000000000
     42989      3349  MEOH      O1             -4.8627632299        9.5628628994       34.5222083466  MEOH      2657            0.0000000000
     42990      3349  MEOH      DO1            -4.8701023474        9.5925714378       34.5226281059  MEOH      2657            0.0000000000
     42991      3349  MEOH      HO1            -5.2140080645        8.9466239893       35.1838552856  MEOH      2657            0.0000000000
     42992      3349  MEOH      HO2            -5.2254175319        9.5997421435       33.6233080300  MEOH      2657            0.0000000000
     42993      3349  MEOH      H1A            -4.2517755222       11.5213496523       34.3678735810  MEOH      2657            0.0000000000
     42994      3349  MEOH      H1B            -4.4391824611       10.8924078903       36.0599358921  MEOH      2657            0.0000000000
     42995      3349  MEOH      H1C            -5.9172650837       11.2695288183       35.0618108986  MEOH      2657            0.0000000000
     42996      3349  MEOH      LP1A           -5.1626657056        9.4972734654       34.3541115554  MEOH      2657            0.0000000000
     42997      3349  MEOH      LP1B           -4.5565794386        9.4091469271       34.5937826842  MEOH      2657            0.0000000000
     42998      3350  MEOH      C1             16.0716163221       29.3684786056       19.0724920113  MEOH      2658            0.0000000000
     42999      3350  MEOH      DC1            16.0910980881       29.3600135770       19.0722918726  MEOH      2658            0.0000000000
     43000      3350  MEOH      O1             16.5652551744       30.5319796635       19.7433197123  MEOH      2658            0.0000000000
     43001      3350  MEOH      DO1            16.5878872289       30.5269322015       19.7455904731  MEOH      2658            0.0000000000
     43002      3350  MEOH      HO1            16.1719484749       30.5556733510       20.6296878356  MEOH      2658            0.0000000000
     43003      3350  MEOH      HO2            17.5157709554       30.6015495203       19.5628210003  MEOH      2658            0.0000000000
     43004      3350  MEOH      H1A            16.2228821961       29.4738431447       17.9768926547  MEOH      2658            0.0000000000
     43005      3350  MEOH      H1B            14.9816637509       29.2584839867       19.2574935689  MEOH      2658            0.0000000000
     43006      3350  MEOH      H1C            16.6039523674       28.4644882694       19.4381979163  MEOH      2658            0.0000000000
     43007      3350  MEOH      LP1A           16.8625401021       30.4559930744       19.9116874943  MEOH      2658            0.0000000000
     43008      3350  MEOH      LP1B           16.3567426656       30.8053736881       19.6779114480  MEOH      2658            0.0000000000
     43009      3351  MEOH      C1            -26.6759252867      -17.3234593993      -36.4939871356  MEOH      2659            0.0000000000
     43010      3351  MEOH      DC1           -26.6725132061      -17.3232622631      -36.4857413440  MEOH      2659            0.0000000000
     43011      3351  MEOH      O1            -27.8003740691      -16.4445191690      -36.5897660507  MEOH      2659            0.0000000000
     43012      3351  MEOH      DO1           -27.8050447436      -16.4503687736      -36.5815178179  MEOH      2659            0.0000000000
     43013      3351  MEOH      HO1           -27.4580305173      -15.5715973037      -36.8381776260  MEOH      2659            0.0000000000
     43014      3351  MEOH      HO2           -28.4486071637      -16.9013362931      -37.1483463674  MEOH      2659            0.0000000000
     43015      3351  MEOH      H1A           -27.0070223380      -18.3236969261      -36.1415376570  MEOH      2659            0.0000000000
     43016      3351  MEOH      H1B           -25.9411713437      -16.9142048543      -35.7680612707  MEOH      2659            0.0000000000
     43017      3351  MEOH      H1C           -26.1922560296      -17.4320690165      -37.4882652661  MEOH      2659            0.0000000000
     43018      3351  MEOH      LP1A          -27.9313692159      -16.4526456333      -36.9142259590  MEOH      2659            0.0000000000
     43019      3351  MEOH      LP1B          -27.8645812665      -16.2979263629      -36.2784977018  MEOH      2659            0.0000000000
     43020      3352  MEOH      C1              1.7443608300       10.8636641752      -27.4861969014  MEOH      2660            0.0000000000
     43021      3352  MEOH      DC1             1.7547311447       10.8670063761      -27.4569093452  MEOH      2660            0.0000000000
     43022      3352  MEOH      O1              1.9128228667        9.5190895659      -27.9355845262  MEOH      2660            0.0000000000
     43023      3352  MEOH      DO1             1.9223295341        9.5209848292      -27.9048590834  MEOH      2660            0.0000000000
     43024      3352  MEOH      HO1             1.6820937999        8.9006474879      -27.2248148772  MEOH      2660            0.0000000000
     43025      3352  MEOH      HO2             1.4046225549        9.4702266686      -28.7603541070  MEOH      2660            0.0000000000
     43026      3352  MEOH      H1A             1.8743937351       11.5622217240      -28.3402635233  MEOH      2660            0.0000000000
     43027      3352  MEOH      H1B             2.4976076439       11.1081603511      -26.7069909856  MEOH      2660            0.0000000000
     43028      3352  MEOH      H1C             0.7164648681       10.9949768610      -27.0855625658  MEOH      2660            0.0000000000
     43029      3352  MEOH      LP1A            1.6169483603        9.4042216194      -28.0831095457  MEOH      2660            0.0000000000
     43030      3352  MEOH      LP1B            2.2403461617        9.4123329040      -27.8736853633  MEOH      2660            0.0000000000
     43031      3353  MEOH      C1             -3.0787739570       14.3575973624       21.9033935517  MEOH      2661            0.0000000000
     43032      3353  MEOH      DC1            -3.0969636884       14.3554941973       21.9055220145  MEOH      2661            0.0000000000
     43033      3353  MEOH      O1             -4.2091249982       13.6540281701       21.3812243785  MEOH      2661            0.0000000000
     43034      3353  MEOH      DO1            -4.2334424859       13.6721786700       21.3906741758  MEOH      2661            0.0000000000
     43035      3353  MEOH      HO1            -4.4530949990       12.9295755150       21.9783399373  MEOH      2661            0.0000000000
     43036      3353  MEOH      HO2            -4.8342835893       14.3029072952       21.0220132747  MEOH      2661            0.0000000000
     43037      3353  MEOH      H1A            -2.6207679814       14.9725687353       21.0994272977  MEOH      2661            0.0000000000
     43038      3353  MEOH      H1B            -2.3107662308       13.6454083865       22.2738959066  MEOH      2661            0.0000000000
     43039      3353  MEOH      H1C            -3.3907566448       15.0303155817       22.7307012347  MEOH      2661            0.0000000000
     43040      3353  MEOH      LP1A           -4.5052075017       13.8010264067       21.4962316372  MEOH      2661            0.0000000000
     43041      3353  MEOH      LP1B           -4.1024913648       13.3963204682       21.1697627777  MEOH      2661            0.0000000000
     43042      3354  MEOH      C1            -33.7651750062       19.7081137670       32.6920165047  MEOH      2662            0.0000000000
     43043      3354  MEOH      DC1           -33.7501656020       19.7001760142       32.6759945562  MEOH      2662            0.0000000000
     43044      3354  MEOH      O1            -33.4488493049       20.4646739091       31.5212215219  MEOH      2662            0.0000000000
     43045      3354  MEOH      DO1           -33.4538185845       20.4562320832       31.5027816573  MEOH      2662            0.0000000000
     43046      3354  MEOH      HO1           -32.8806282287       19.9330374468       30.9420950401  MEOH      2662            0.0000000000
     43047      3354  MEOH      HO2           -34.2785862525       20.8650389830       31.2176685525  MEOH      2662            0.0000000000
     43048      3354  MEOH      H1A           -34.2164674771       20.3861159130       33.4476415411  MEOH      2662            0.0000000000
     43049      3354  MEOH      H1B           -32.8496031232       19.2654152103       33.1393051323  MEOH      2662            0.0000000000
     43050      3354  MEOH      H1C           -34.4992257010       18.9099774425       32.4502128952  MEOH      2662            0.0000000000
     43051      3354  MEOH      LP1A          -33.6918008084       20.4113651629       31.2749843506  MEOH      2662            0.0000000000
     43052      3354  MEOH      LP1B          -33.1591522329       20.6534758306       31.5753458319  MEOH      2662            0.0000000000
     43053      3355  MEOH      C1             -3.3297210923       30.3596214477      -18.8548132174  MEOH      2663            0.0000000000
     43054      3355  MEOH      DC1            -3.3218610662       30.3578602290      -18.8578951418  MEOH      2663            0.0000000000
     43055      3355  MEOH      O1             -2.9639722888       29.0061317708      -18.6132241243  MEOH      2663            0.0000000000
     43056      3355  MEOH      DO1            -2.9584673079       29.0044669316      -18.6027857484  MEOH      2663            0.0000000000
     43057      3355  MEOH      HO1            -3.7169898520       28.4663926470      -18.9005327202  MEOH      2663            0.0000000000
     43058      3355  MEOH      HO2            -2.0962282068       28.8868352309      -19.0299836996  MEOH      2663            0.0000000000
     43059      3355  MEOH      H1A            -2.5344166899       31.0403292507      -18.4827261376  MEOH      2663            0.0000000000
     43060      3355  MEOH      H1B            -4.2797393584       30.5885215005      -18.3262386627  MEOH      2663            0.0000000000
     43061      3355  MEOH      H1C            -3.4635617118       30.5162679424      -19.9465410065  MEOH      2663            0.0000000000
     43062      3355  MEOH      LP1A           -2.7992569306       28.8749153225      -18.8927792968  MEOH      2663            0.0000000000
     43063      3355  MEOH      LP1B           -3.0569978880       28.9130545008      -18.2889050534  MEOH      2663            0.0000000000
     43064      3356  MEOH      C1              0.0150503892      -20.5441796653       16.2465392263  MEOH      2664            0.0000000000
     43065      3356  MEOH      DC1             0.0084422684      -20.5488571718       16.2709538857  MEOH      2664            0.0000000000
     43066      3356  MEOH      O1             -0.5087088439      -21.8027968584       16.6769613525  MEOH      2664            0.0000000000
     43067      3356  MEOH      DO1            -0.5041383161      -21.8029789166       16.6985442788  MEOH      2664            0.0000000000
     43068      3356  MEOH      HO1            -0.3148475995      -22.4348828765       15.9671831592  MEOH      2664            0.0000000000
     43069      3356  MEOH      HO2            -0.1991839006      -21.9439604461       17.5853484683  MEOH      2664            0.0000000000
     43070      3356  MEOH      H1A            -0.3834875416      -19.7289161503       16.8875025015  MEOH      2664            0.0000000000
     43071      3356  MEOH      H1B            -0.2808297943      -20.3428455266       15.1947595526  MEOH      2664            0.0000000000
     43072      3356  MEOH      H1C             1.1245661506      -20.5476938143       16.3038404121  MEOH      2664            0.0000000000
     43073      3356  MEOH      LP1A           -0.2664797162      -21.9769894128       16.8599422359  MEOH      2664            0.0000000000
     43074      3356  MEOH      LP1B           -0.8422702902      -21.8345437412       16.5758233429  MEOH      2664            0.0000000000
     43075      3357  MEOH      C1             11.3315078163       -9.3864621519       11.1793433155  MEOH      2665            0.0000000000
     43076      3357  MEOH      DC1            11.3429925438       -9.3904532692       11.1783028312  MEOH      2665            0.0000000000
     43077      3357  MEOH      O1             10.0128599020       -9.6300820585       10.6886493913  MEOH      2665            0.0000000000
     43078      3357  MEOH      DO1            10.0238576581       -9.6385813548       10.6711738503  MEOH      2665            0.0000000000
     43079      3357  MEOH      HO1             9.6501358087      -10.3748913669       11.1932188377  MEOH      2665            0.0000000000
     43080      3357  MEOH      HO2             9.5587634654       -8.7761933389       10.7632850506  MEOH      2665            0.0000000000
     43081      3357  MEOH      H1A            11.7455279283       -8.4814454447       10.6855284644  MEOH      2665            0.0000000000
     43082      3357  MEOH      H1B            11.9883660104      -10.2538829329       10.9547559125  MEOH      2665            0.0000000000
     43083      3357  MEOH      H1C            11.2982050835       -9.2074775340       12.2753252665  MEOH      2665            0.0000000000
     43084      3357  MEOH      LP1A            9.7814541335       -9.4364713566       10.8660367257  MEOH      2665            0.0000000000
     43085      3357  MEOH      LP1B           10.0243653774       -9.8559169497       10.4215048125  MEOH      2665            0.0000000000
     43086      3358  MEOH      C1             -6.0006155625      -15.4908669350       32.6499682756  MEOH      2666            0.0000000000
     43087      3358  MEOH      DC1            -6.0016189259      -15.4902497042       32.6442957739  MEOH      2666            0.0000000000
     43088      3358  MEOH      O1             -5.9835929578      -14.1146841221       33.0278296698  MEOH      2666            0.0000000000
     43089      3358  MEOH      DO1            -5.9879575652      -14.1158046447       33.0260592243  MEOH      2666            0.0000000000
     43090      3358  MEOH      HO1            -6.6956033497      -13.6616494477       32.5496029605  MEOH      2666            0.0000000000
     43091      3358  MEOH      HO2            -5.9899612635      -14.1166412185       33.9978067911  MEOH      2666            0.0000000000
     43092      3358  MEOH      H1A            -5.1752694577      -16.0298510210       33.1624338495  MEOH      2666            0.0000000000
     43093      3358  MEOH      H1B            -5.8511316389      -15.5846833809       31.5530753765  MEOH      2666            0.0000000000
     43094      3358  MEOH      H1C            -6.9631874776      -15.9569121614       32.9509303251  MEOH      2666            0.0000000000
     43095      3358  MEOH      LP1A           -6.1849822594      -14.0654745628       33.3098239401  MEOH      2666            0.0000000000
     43096      3358  MEOH      LP1B           -5.7704368193      -13.9350590088       32.8161712674  MEOH      2666            0.0000000000
     43097      3359  MEOH      C1            -18.6701353710       26.7232420282        6.6938201480  MEOH      2667            0.0000000000
     43098      3359  MEOH      DC1           -18.6608012512       26.7368263452        6.6950867641  MEOH      2667            0.0000000000
     43099      3359  MEOH      O1            -19.7953189096       25.8587129535        6.7871274563  MEOH      2667            0.0000000000
     43100      3359  MEOH      DO1           -19.7862786238       25.8657342084        6.7920902583  MEOH      2667            0.0000000000
     43101      3359  MEOH      HO1           -20.5759172283       26.4007755137        6.9813810166  MEOH      2667            0.0000000000
     43102      3359  MEOH      HO2           -19.7832204945       25.3319049120        5.9727400074  MEOH      2667            0.0000000000
     43103      3359  MEOH      H1A           -17.7719543259       26.1091962611        6.4690099923  MEOH      2667            0.0000000000
     43104      3359  MEOH      H1B           -18.5058605707       27.2506237672        7.6577720624  MEOH      2667            0.0000000000
     43105      3359  MEOH      H1C           -18.8277559206       27.4561844725        5.8738981174  MEOH      2667            0.0000000000
     43106      3359  MEOH      LP1A          -19.9414573474       25.8179694926        6.4717173623  MEOH      2667            0.0000000000
     43107      3359  MEOH      LP1B          -19.8318637974       25.7448780967        7.1160744073  MEOH      2667            0.0000000000
     43108      3360  MEOH      C1             14.8831920653       -1.3992824755       27.4137277210  MEOH      2668            0.0000000000
     43109      3360  MEOH      DC1            14.8795079962       -1.4002977638       27.4204058324  MEOH      2668            0.0000000000
     43110      3360  MEOH      O1             14.8125580871       -2.8275694302       27.4516982879  MEOH      2668            0.0000000000
     43111      3360  MEOH      DO1            14.8248221971       -2.8317462690       27.4588787566  MEOH      2668            0.0000000000
     43112      3360  MEOH      HO1            14.9555757207       -3.1065278410       28.3696460868  MEOH      2668            0.0000000000
     43113      3360  MEOH      HO2            13.9815928923       -3.0546950508       27.0058162420  MEOH      2668            0.0000000000
     43114      3360  MEOH      H1A            14.7559092389       -1.0512987172       26.3663369696  MEOH      2668            0.0000000000
     43115      3360  MEOH      H1B            15.8695200974       -1.0592916984       27.7956757364  MEOH      2668            0.0000000000
     43116      3360  MEOH      H1C            14.0768861015       -0.9533521733       28.0344835983  MEOH      2668            0.0000000000
     43117      3360  MEOH      LP1A           14.4820550826       -2.9297046566       27.5049538937  MEOH      2668            0.0000000000
     43118      3360  MEOH      LP1B           15.1292810198       -2.9646756252       27.3934876775  MEOH      2668            0.0000000000
     43119      3361  MEOH      C1             -6.7188817850       -2.4092528709      -13.9289558761  MEOH      2669            0.0000000000
     43120      3361  MEOH      DC1            -6.7082458270       -2.4331303425      -13.9338997988  MEOH      2669            0.0000000000
     43121      3361  MEOH      O1             -7.2704641994       -3.6500724148      -13.5050578997  MEOH      2669            0.0000000000
     43122      3361  MEOH      DO1            -7.2665686742       -3.6718267157      -13.5015589521  MEOH      2669            0.0000000000
     43123      3361  MEOH      HO1            -6.8054126507       -4.3476846227      -13.9928737097  MEOH      2669            0.0000000000
     43124      3361  MEOH      HO2            -7.2933054650       -3.6182570334      -12.5358489131  MEOH      2669            0.0000000000
     43125      3361  MEOH      H1A            -7.3888746688       -1.5770963310      -13.6240853634  MEOH      2669            0.0000000000
     43126      3361  MEOH      H1B            -6.6300803972       -2.4023416218      -15.0363797101  MEOH      2669            0.0000000000
     43127      3361  MEOH      H1C            -5.7210143699       -2.2347333673      -13.4727491619  MEOH      2669            0.0000000000
     43128      3361  MEOH      LP1A           -7.0959560127       -3.7696219471      -13.2262124190  MEOH      2669            0.0000000000
     43129      3361  MEOH      LP1B           -7.5449158619       -3.7337771175      -13.7054819693  MEOH      2669            0.0000000000
     43130      3362  MEOH      C1            -19.1761677540      -13.4847637094      -19.7552520644  MEOH      2670            0.0000000000
     43131      3362  MEOH      DC1           -19.1725618610      -13.4906786116      -19.7581206529  MEOH      2670            0.0000000000
     43132      3362  MEOH      O1            -19.3420857834      -12.2185904264      -20.3936384501  MEOH      2670            0.0000000000
     43133      3362  MEOH      DO1           -19.3389034509      -12.2307107690      -20.4048606992  MEOH      2670            0.0000000000
     43134      3362  MEOH      HO1           -20.2784361983      -12.1243304867      -20.6287192113  MEOH      2670            0.0000000000
     43135      3362  MEOH      HO2           -18.9455936930      -11.5729405389      -19.7879733235  MEOH      2670            0.0000000000
     43136      3362  MEOH      H1A           -18.1198557633      -13.6025667315      -19.4317579706  MEOH      2670            0.0000000000
     43137      3362  MEOH      H1B           -19.4391227803      -14.3041926391      -20.4578984086  MEOH      2670            0.0000000000
     43138      3362  MEOH      H1C           -19.8292815587      -13.5497427507      -18.8588475340  MEOH      2670            0.0000000000
     43139      3362  MEOH      LP1A          -19.4096382157      -11.9719715674      -20.1546493139  MEOH      2670            0.0000000000
     43140      3362  MEOH      LP1B          -19.2911439816      -12.2507694394      -20.7384129328  MEOH      2670            0.0000000000
     43141      3363  MEOH      C1             30.9519008756      -18.6395415824       28.1633308308  MEOH      2671            0.0000000000
     43142      3363  MEOH      DC1            30.9406632913      -18.6102907827       28.1702818172  MEOH      2671            0.0000000000
     43143      3363  MEOH      O1             30.4276497584      -18.5576505276       26.8399012074  MEOH      2671            0.0000000000
     43144      3363  MEOH      DO1            30.4194678460      -18.5254916808       26.8394462421  MEOH      2671            0.0000000000
     43145      3363  MEOH      HO1            30.6501719706      -17.6788803754       26.4947246083  MEOH      2671            0.0000000000
     43146      3363  MEOH      HO2            30.8071622323      -19.3251834166       26.3840903384  MEOH      2671            0.0000000000
     43147      3363  MEOH      H1A            30.8594051187      -19.6707636424       28.5662534015  MEOH      2671            0.0000000000
     43148      3363  MEOH      H1B            30.3645790401      -17.9910174126       28.8480135782  MEOH      2671            0.0000000000
     43149      3363  MEOH      H1C            32.0244523972      -18.3499324570       28.1543425869  MEOH      2671            0.0000000000
     43150      3363  MEOH      LP1A           30.6642335109      -18.6745450259       26.6099799071  MEOH      2671            0.0000000000
     43151      3363  MEOH      LP1B           30.0989618622      -18.4376949463       26.8485571541  MEOH      2671            0.0000000000
     43152      3364  MEOH      C1             20.5081719005        6.5910873843      -36.3435492285  MEOH      2672            0.0000000000
     43153      3364  MEOH      DC1            20.5052900842        6.5940388184      -36.3376807071  MEOH      2672            0.0000000000
     43154      3364  MEOH      O1             19.5069539459        7.5976181834      -36.5250527529  MEOH      2672            0.0000000000
     43155      3364  MEOH      DO1            19.5113206483        7.6021273584      -36.5280678575  MEOH      2672            0.0000000000
     43156      3364  MEOH      HO1            19.5607133274        8.2203573308      -35.7832941104  MEOH      2672            0.0000000000
     43157      3364  MEOH      HO2            19.5917843215        7.9053252251      -37.4410332024  MEOH      2672            0.0000000000
     43158      3364  MEOH      H1A            20.3657666629        5.7868604910      -37.0967164434  MEOH      2672            0.0000000000
     43159      3364  MEOH      H1B            20.4315452724        6.1418781054      -35.3303067185  MEOH      2672            0.0000000000
     43160      3364  MEOH      H1C            21.5195886053        7.0310595805      -36.4768973287  MEOH      2672            0.0000000000
     43161      3364  MEOH      LP1A           19.6361364060        7.8622199827      -36.7142557650  MEOH      2672            0.0000000000
     43162      3364  MEOH      LP1B           19.2069490132        7.4963037581      -36.3759473285  MEOH      2672            0.0000000000
     43163      3365  MEOH      C1             35.7816017828       33.2263828838        8.5224013883  MEOH      2673            0.0000000000
     43164      3365  MEOH      DC1            35.7871313340       33.2154288081        8.5205482358  MEOH      2673            0.0000000000
     43165      3365  MEOH      O1             36.7879731794       34.2402039155        8.5103468022  MEOH      2673            0.0000000000
     43166      3365  MEOH      DO1            36.7948284367       34.2338675727        8.5092062508  MEOH      2673            0.0000000000
     43167      3365  MEOH      HO1            36.3425278830       35.0752400049        8.7229337700  MEOH      2673            0.0000000000
     43168      3365  MEOH      HO2            37.5035018887       33.9105727213        9.0762637060  MEOH      2673            0.0000000000
     43169      3365  MEOH      H1A            36.2168816130       32.2561304438        8.2007452489  MEOH      2673            0.0000000000
     43170      3365  MEOH      H1B            34.9550598346       33.5029146566        7.8334314412  MEOH      2673            0.0000000000
     43171      3365  MEOH      H1C            35.3735436580       33.1159926899        9.5498368229  MEOH      2673            0.0000000000
     43172      3365  MEOH      LP1A           36.9321204983       34.2695684527        8.8279302943  MEOH      2673            0.0000000000
     43173      3365  MEOH      LP1B           36.8203966406       34.3728634804        8.1880888946  MEOH      2673            0.0000000000
     43174      3366  MEOH      C1              7.2410028928      -30.8191362430       -9.1572074643  MEOH      2674            0.0000000000
     43175      3366  MEOH      DC1             7.2409315550      -30.8187509579       -9.1732433629  MEOH      2674            0.0000000000
     43176      3366  MEOH      O1              8.1523166100      -31.0044505255       -8.0779616543  MEOH      2674            0.0000000000
     43177      3366  MEOH      DO1             8.1556047039      -31.0018344638       -8.1004507289  MEOH      2674            0.0000000000
     43178      3366  MEOH      HO1             7.6574496706      -30.9317626983       -7.2468640715  MEOH      2674            0.0000000000
     43179      3366  MEOH      HO2             8.6417962028      -31.8166747539       -8.2819261914  MEOH      2674            0.0000000000
     43180      3366  MEOH      H1A             7.7985859058      -30.8677084306      -10.1169276979  MEOH      2674            0.0000000000
     43181      3366  MEOH      H1B             6.7530706003      -29.8254645140       -9.0630821594  MEOH      2674            0.0000000000
     43182      3366  MEOH      H1C             6.4641535732      -31.6132176947       -9.1410586448  MEOH      2674            0.0000000000
     43183      3366  MEOH      LP1A            8.1749402275      -31.3443010225       -7.9974022871  MEOH      2674            0.0000000000
     43184      3366  MEOH      LP1B            8.2914276574      -30.6971403371       -7.9846419639  MEOH      2674            0.0000000000
     43185      3367  MEOH      C1            -20.6866591104      -24.7413635147       32.0060424723  MEOH      2675            0.0000000000
     43186      3367  MEOH      DC1           -20.6842840494      -24.7461467603       32.0076003599  MEOH      2675            0.0000000000
     43187      3367  MEOH      O1            -21.9262254352      -24.6538462039       32.7038304699  MEOH      2675            0.0000000000
     43188      3367  MEOH      DO1           -21.9224147060      -24.6543328398       32.7078997075  MEOH      2675            0.0000000000
     43189      3367  MEOH      HO1           -22.6152215287      -24.5006812859       32.0384547176  MEOH      2675            0.0000000000
     43190      3367  MEOH      HO2           -21.9673720463      -25.4514061319       33.2543803020  MEOH      2675            0.0000000000
     43191      3367  MEOH      H1A           -19.8494451288      -24.8620261925       32.7263439841  MEOH      2675            0.0000000000
     43192      3367  MEOH      H1B           -20.5162346561      -23.8190306335       31.4105774762  MEOH      2675            0.0000000000
     43193      3367  MEOH      H1C           -20.7106257477      -25.6199088008       31.3264067003  MEOH      2675            0.0000000000
     43194      3367  MEOH      LP1A          -22.0686633441      -24.9720092386       32.7351948676  MEOH      2675            0.0000000000
     43195      3367  MEOH      LP1B          -21.9865425119      -24.3226612311       32.7996342488  MEOH      2675            0.0000000000
     43196      3368  MEOH      C1              8.9870772940       21.5902797928      -20.8406578337  MEOH      2676            0.0000000000
     43197      3368  MEOH      DC1             8.9938616895       21.5929225519      -20.8525848643  MEOH      2676            0.0000000000
     43198      3368  MEOH      O1              8.5038497261       21.0395262656      -22.0691851010  MEOH      2676            0.0000000000
     43199      3368  MEOH      DO1             8.5189541852       21.0274730764      -22.0757685958  MEOH      2676            0.0000000000
     43200      3368  MEOH      HO1             7.7074566051       21.5301237132      -22.3260355263  MEOH      2676            0.0000000000
     43201      3368  MEOH      HO2             9.2712341107       20.9420485755      -22.6544365915  MEOH      2676            0.0000000000
     43202      3368  MEOH      H1A             9.8177122778       20.9631432372      -20.4519853953  MEOH      2676            0.0000000000
     43203      3368  MEOH      H1B             8.1755411888       21.6264183867      -20.0827500858  MEOH      2676            0.0000000000
     43204      3368  MEOH      H1C             9.3725614205       22.6189604315      -21.0066070203  MEOH      2676            0.0000000000
     43205      3368  MEOH      LP1A            8.6532463820       21.2026193538      -22.3404438037  MEOH      2676            0.0000000000
     43206      3368  MEOH      LP1B            8.2822231078       20.7767035093      -22.0035661950  MEOH      2676            0.0000000000
     43207      3369  MEOH      C1              0.7252220114       28.3795894845       24.1044972744  MEOH      2677            0.0000000000
     43208      3369  MEOH      DC1             0.7350805159       28.3794717456       24.1054719500  MEOH      2677            0.0000000000
     43209      3369  MEOH      O1             -0.5989204877       28.0537507263       24.5339888325  MEOH      2677            0.0000000000
     43210      3369  MEOH      DO1            -0.5867344988       28.0500404035       24.5460368719  MEOH      2677            0.0000000000
     43211      3369  MEOH      HO1            -1.0340133733       28.8848558597       24.7806838642  MEOH      2677            0.0000000000
     43212      3369  MEOH      HO2            -0.9866907660       27.5631414630       23.7924790469  MEOH      2677            0.0000000000
     43213      3369  MEOH      H1A             1.1839459198       27.4987016095       23.6065716494  MEOH      2677            0.0000000000
     43214      3369  MEOH      H1B             1.3517219164       28.6838114201       24.9700998869  MEOH      2677            0.0000000000
     43215      3369  MEOH      H1C             0.6912499073       29.2143090292       23.3720969881  MEOH      2677            0.0000000000
     43216      3369  MEOH      LP1A           -0.8173338716       28.0556216018       24.2605074006  MEOH      2677            0.0000000000
     43217      3369  MEOH      LP1B           -0.6001576446       27.9862030182       24.8774066197  MEOH      2677            0.0000000000
     43218      3370  MEOH      C1             23.5400980381      -11.2172209632       23.8616747344  MEOH      2678            0.0000000000
     43219      3370  MEOH      DC1            23.5490438089      -11.2435118533       23.8684117425  MEOH      2678            0.0000000000
     43220      3370  MEOH      O1             24.7376343043      -11.9718424050       23.6451778251  MEOH      2678            0.0000000000
     43221      3370  MEOH      DO1            24.7430299487      -12.0096276563       23.6587160043  MEOH      2678            0.0000000000
     43222      3370  MEOH      HO1            25.4609172114      -11.4215321767       23.9841770733  MEOH      2678            0.0000000000
     43223      3370  MEOH      HO2            24.5635845244      -12.8812975163       23.9341381591  MEOH      2678            0.0000000000
     43224      3370  MEOH      H1A            22.7241013010      -11.5842646167       23.2030782856  MEOH      2678            0.0000000000
     43225      3370  MEOH      H1B            23.7204405000      -10.1479537868       23.6198787421  MEOH      2678            0.0000000000
     43226      3370  MEOH      H1C            23.2143661197      -11.2880649335       24.9214864400  MEOH      2678            0.0000000000
     43227      3370  MEOH      LP1A           24.8010308956      -12.1775606120       23.9211504533  MEOH      2678            0.0000000000
     43228      3370  MEOH      LP1B           24.8682787102      -11.9007708301       23.3283484223  MEOH      2678            0.0000000000
     43229      3371  MEOH      C1              7.3967971067        9.3971535581      -27.5393784774  MEOH      2679            0.0000000000
     43230      3371  MEOH      DC1             7.3846078947        9.4026192934      -27.5141487965  MEOH      2679            0.0000000000
     43231      3371  MEOH      O1              8.6016045479        9.8649990548      -28.1461754659  MEOH      2679            0.0000000000
     43232      3371  MEOH      DO1             8.5842467742        9.8706975310      -28.1481394128  MEOH      2679            0.0000000000
     43233      3371  MEOH      HO1             9.1193218659       10.3331831193      -27.4726233444  MEOH      2679            0.0000000000
     43234      3371  MEOH      HO2             9.0049318630        9.0704015058      -28.5293749087  MEOH      2679            0.0000000000
     43235      3371  MEOH      H1A             6.8301478874        8.7806726359      -28.2695708745  MEOH      2679            0.0000000000
     43236      3371  MEOH      H1B             6.7581740252       10.2565362341      -27.2428266662  MEOH      2679            0.0000000000
     43237      3371  MEOH      H1C             7.6483874959        8.7609315204      -26.6640243806  MEOH      2679            0.0000000000
     43238      3371  MEOH      LP1A            8.8508102666        9.6204763329      -28.1215757050  MEOH      2679            0.0000000000
     43239      3371  MEOH      LP1B            8.5511648394       10.1833762900      -28.2825271140  MEOH      2679            0.0000000000
     43240      3372  MEOH      C1             -7.1721817376      -34.7856578641      -26.8138764978  MEOH      2680            0.0000000000
     43241      3372  MEOH      DC1            -7.1606870524      -34.7676656936      -26.8224687570  MEOH      2680            0.0000000000
     43242      3372  MEOH      O1             -8.5716594034      -34.8341556200      -27.0777412151  MEOH      2680            0.0000000000
     43243      3372  MEOH      DO1            -8.5599681412      -34.8215490884      -27.0897149655  MEOH      2680            0.0000000000
     43244      3372  MEOH      HO1            -8.9125411760      -33.9541471533      -27.3019837525  MEOH      2680            0.0000000000
     43245      3372  MEOH      HO2            -8.7234449508      -35.6036796333      -27.6484372302  MEOH      2680            0.0000000000
     43246      3372  MEOH      H1A            -6.8710393429      -35.7353457211      -26.3222188594  MEOH      2680            0.0000000000
     43247      3372  MEOH      H1B            -6.9350407037      -33.9376473447      -26.1364082041  MEOH      2680            0.0000000000
     43248      3372  MEOH      H1C            -6.6168371523      -34.6920104161      -27.7715526149  MEOH      2680            0.0000000000
     43249      3372  MEOH      LP1A           -8.6273088632      -34.9009007256      -27.4167813728  MEOH      2680            0.0000000000
     43250      3372  MEOH      LP1B           -8.7511333575      -34.7868581103      -26.7810055661  MEOH      2680            0.0000000000
     43251      3373  MEOH      C1            -30.6687615879      -18.4798157645      -22.7737135575  MEOH      2681            0.0000000000
     43252      3373  MEOH      DC1           -30.6644421182      -18.4719642010      -22.7713619614  MEOH      2681            0.0000000000
     43253      3373  MEOH      O1            -30.9653312016      -19.8597782596      -22.9692256154  MEOH      2681            0.0000000000
     43254      3373  MEOH      DO1           -30.9696510315      -19.8543859782      -22.9629413818  MEOH      2681            0.0000000000
     43255      3373  MEOH      HO1           -30.1831691630      -20.2972233674      -23.3403917817  MEOH      2681            0.0000000000
     43256      3373  MEOH      HO2           -31.3670440506      -20.1688364423      -22.1421767488  MEOH      2681            0.0000000000
     43257      3373  MEOH      H1A           -31.5965963757      -17.9369572125      -22.4930924623  MEOH      2681            0.0000000000
     43258      3373  MEOH      H1B           -30.2610590098      -18.0436008921      -23.7106320140  MEOH      2681            0.0000000000
     43259      3373  MEOH      H1C           -29.9312423322      -18.3761987934      -21.9493047565  MEOH      2681            0.0000000000
     43260      3373  MEOH      LP1A          -30.8883406035      -20.0409361876      -22.6798223451  MEOH      2681            0.0000000000
     43261      3373  MEOH      LP1B          -31.1027368315      -19.9087825650      -23.2873738057  MEOH      2681            0.0000000000
     43262      3374  MEOH      C1            -32.8790018189       25.1825257554      -29.9723568447  MEOH      2682            0.0000000000
     43263      3374  MEOH      DC1           -32.8783160722       25.1780777042      -29.9702403978  MEOH      2682            0.0000000000
     43264      3374  MEOH      O1            -33.3104224128       24.7923661528      -28.6672906557  MEOH      2682            0.0000000000
     43265      3374  MEOH      DO1           -33.3131117201       24.7882034240      -28.6636840590  MEOH      2682            0.0000000000
     43266      3374  MEOH      HO1           -33.7236552374       25.5741203137      -28.2685437880  MEOH      2682            0.0000000000
     43267      3374  MEOH      HO2           -33.8207179355       23.9761421539      -28.7867764888  MEOH      2682            0.0000000000
     43268      3374  MEOH      H1A           -32.3190120388       24.3462678302      -30.4428939098  MEOH      2682            0.0000000000
     43269      3374  MEOH      H1B           -32.2130003214       26.0688095842      -29.8998035532  MEOH      2682            0.0000000000
     43270      3374  MEOH      H1C           -33.7557796085       25.4289106377      -30.6086556731  MEOH      2682            0.0000000000
     43271      3374  MEOH      LP1A          -33.6354951458       24.6635059408      -28.6822159372  MEOH      2682            0.0000000000
     43272      3374  MEOH      LP1B          -33.0535646256       24.8452731753      -28.4355042797  MEOH      2682            0.0000000000
     43273      3375  MEOH      C1              2.9252692137       33.5252947037       15.9374255094  MEOH      2683            0.0000000000
     43274      3375  MEOH      DC1             2.9097805533       33.5326128909       15.9476074545  MEOH      2683            0.0000000000
     43275      3375  MEOH      O1              3.7578294244       33.7829288978       14.8093041525  MEOH      2683            0.0000000000
     43276      3375  MEOH      DO1             3.7429262382       33.7892396423       14.8177436974  MEOH      2683            0.0000000000
     43277      3375  MEOH      HO1             4.3768481190       34.4947300861       15.0352575197  MEOH      2683            0.0000000000
     43278      3375  MEOH      HO2             4.1214096552       32.9180291263       14.5630161068  MEOH      2683            0.0000000000
     43279      3375  MEOH      H1A             2.1982375102       32.7290559746       15.6695639997  MEOH      2683            0.0000000000
     43280      3375  MEOH      H1B             2.3798892513       34.4475309936       16.2312995038  MEOH      2683            0.0000000000
     43281      3375  MEOH      H1C             3.5393815990       33.1705545364       16.7926134377  MEOH      2683            0.0000000000
     43282      3375  MEOH      LP1A            4.0412595503       33.5778809830       14.8203818941  MEOH      2683            0.0000000000
     43283      3375  MEOH      LP1B            3.6087607101       34.0230535768       14.6028612864  MEOH      2683            0.0000000000
     43284      3376  MEOH      C1              3.0825032656       -2.6304336518       34.6906145327  MEOH      2684            0.0000000000
     43285      3376  MEOH      DC1             3.0863028858       -2.6367544025       34.6705377774  MEOH      2684            0.0000000000
     43286      3376  MEOH      O1              3.2477544553       -2.6069058056       33.2708416514  MEOH      2684            0.0000000000
     43287      3376  MEOH      DO1             3.2459591290       -2.5961176343       33.2530795845  MEOH      2684            0.0000000000
     43288      3376  MEOH      HO1             3.5245177151       -1.7006695648       33.0633856949  MEOH      2684            0.0000000000
     43289      3376  MEOH      HO2             3.8296174736       -3.3548587634       33.0637141507  MEOH      2684            0.0000000000
     43290      3376  MEOH      H1A             2.7278010691       -3.6303937551       35.0201401669  MEOH      2684            0.0000000000
     43291      3376  MEOH      H1B             2.3407907670       -1.8636359826       35.0007836893  MEOH      2684            0.0000000000
     43292      3376  MEOH      H1C             4.0512058032       -2.4123589655       35.1889917246  MEOH      2684            0.0000000000
     43293      3376  MEOH      LP1A            3.5749352851       -2.6985677277       33.1868726296  MEOH      2684            0.0000000000
     43294      3376  MEOH      LP1B            2.9452146465       -2.5223621851       33.1164977485  MEOH      2684            0.0000000000
     43295      3377  MEOH      C1            -20.0043294766      -31.0111468805       -9.0762256792  MEOH      2685            0.0000000000
     43296      3377  MEOH      DC1           -19.9915202160      -31.0083368040       -9.0723804325  MEOH      2685            0.0000000000
     43297      3377  MEOH      O1            -21.0876816700      -30.6163963622       -9.9181446770  MEOH      2685            0.0000000000
     43298      3377  MEOH      DO1           -21.0823055900      -30.6137795880       -9.9143711659  MEOH      2685            0.0000000000
     43299      3377  MEOH      HO1           -20.9507971450      -29.6892711113      -10.1683473867  MEOH      2685            0.0000000000
     43300      3377  MEOH      HO2           -21.1435327567      -31.2982732260      -10.6057671024  MEOH      2685            0.0000000000
     43301      3377  MEOH      H1A           -20.1738822166      -32.0584998022       -8.7466430226  MEOH      2685            0.0000000000
     43302      3377  MEOH      H1B           -19.9527977000      -30.3517776578       -8.1835344085  MEOH      2685            0.0000000000
     43303      3377  MEOH      H1C           -19.0494911820      -30.9623073886       -9.6421051146  MEOH      2685            0.0000000000
     43304      3377  MEOH      LP1A          -21.0105413485      -30.6850104650      -10.2525717628  MEOH      2685            0.0000000000
     43305      3377  MEOH      LP1B          -21.3510293960      -30.4920912761       -9.7239895309  MEOH      2685            0.0000000000
     43306      3378  MEOH      C1             31.8375888032       34.6903093125      -30.9184995186  MEOH      2686            0.0000000000
     43307      3378  MEOH      DC1            31.8359275338       34.6961496643      -30.9184178936  MEOH      2686            0.0000000000
     43308      3378  MEOH      O1             32.4321822010       35.3498988522      -32.0378371139  MEOH      2686            0.0000000000
     43309      3378  MEOH      DO1            32.4355137618       35.3512330404      -32.0380815765  MEOH      2686            0.0000000000
     43310      3378  MEOH      HO1            31.7165033012       35.5508154209      -32.6610034197  MEOH      2686            0.0000000000
     43311      3378  MEOH      HO2            32.9703805098       36.0657911924      -31.6653579353  MEOH      2686            0.0000000000
     43312      3378  MEOH      H1A            32.6388795794       34.3706993189      -30.2184255625  MEOH      2686            0.0000000000
     43313      3378  MEOH      H1B            31.2868218012       33.7744509595      -31.2221114218  MEOH      2686            0.0000000000
     43314      3378  MEOH      H1C            31.1387712898       35.3864311147      -30.4072368464  MEOH      2686            0.0000000000
     43315      3378  MEOH      LP1A           32.4409784924       35.6953677938      -31.9823949309  MEOH      2686            0.0000000000
     43316      3378  MEOH      LP1B           32.5333301204       35.1140825778      -32.2758702695  MEOH      2686            0.0000000000
     43317      3379  MEOH      C1             19.3758575482        8.9891658920        8.5056213869  MEOH      2687            0.0000000000
     43318      3379  MEOH      DC1            19.3681375941        8.9904280843        8.4944288410  MEOH      2687            0.0000000000
     43319      3379  MEOH      O1             18.3997330515        9.9912149821        8.2125034524  MEOH      2687            0.0000000000
     43320      3379  MEOH      DO1            18.3868350849        9.9926082387        8.1918496146  MEOH      2687            0.0000000000
     43321      3379  MEOH      HO1            18.6943865278       10.4546371938        7.4129290760  MEOH      2687            0.0000000000
     43322      3379  MEOH      HO2            17.5315682699        9.5670199847        8.2976416701  MEOH      2687            0.0000000000
     43323      3379  MEOH      H1A            19.1960779447        8.5367438422        9.5042777760  MEOH      2687            0.0000000000
     43324      3379  MEOH      H1B            20.3881046105        9.4464381968        8.5296822293  MEOH      2687            0.0000000000
     43325      3379  MEOH      H1C            19.3284900655        8.1875398351        7.7378499445  MEOH      2687            0.0000000000
     43326      3379  MEOH      LP1A           18.1496819861        9.8582244446        8.0068630341  MEOH      2687            0.0000000000
     43327      3379  MEOH      LP1B           18.4801906792       10.2888117977        8.3782222066  MEOH      2687            0.0000000000
     43328      3380  MEOH      C1            -23.0348100963      -34.4236948004       -6.5486517081  MEOH      2688            0.0000000000
     43329      3380  MEOH      DC1           -23.0386302419      -34.4176273609       -6.5357894844  MEOH      2688            0.0000000000
     43330      3380  MEOH      O1            -22.1637256113      -35.1029069298       -7.4531434512  MEOH      2688            0.0000000000
     43331      3380  MEOH      DO1           -22.1624847906      -35.0943646388       -7.4351203842  MEOH      2688            0.0000000000
     43332      3380  MEOH      HO1           -22.4809606151      -36.0125836284       -7.5660604862  MEOH      2688            0.0000000000
     43333      3380  MEOH      HO2           -22.1082782861      -34.5327281489       -8.2359089026  MEOH      2688            0.0000000000
     43334      3380  MEOH      H1A           -22.6564205340      -33.3909072345       -6.3921519172  MEOH      2688            0.0000000000
     43335      3380  MEOH      H1B           -23.0643318950      -34.9569938433       -5.5744640492  MEOH      2688            0.0000000000
     43336      3380  MEOH      H1C           -24.0574109120      -34.3645398276       -6.9788949661  MEOH      2688            0.0000000000
     43337      3380  MEOH      LP1A          -22.2745471209      -35.0585155809       -7.7821540911  MEOH      2688            0.0000000000
     43338      3380  MEOH      LP1B          -21.9004940816      -35.2516818095       -7.2768618670  MEOH      2688            0.0000000000
     43339      3381  MEOH      C1              1.9849439323       12.0032819874       24.3112582330  MEOH      2689            0.0000000000
     43340      3381  MEOH      DC1             1.9863654522       12.0154681382       24.3303842420  MEOH      2689            0.0000000000
     43341      3381  MEOH      O1              2.3727600610       11.4259699889       25.5634487836  MEOH      2689            0.0000000000
     43342      3381  MEOH      DO1             2.3728824057       11.4453116863       25.5800357274  MEOH      2689            0.0000000000
     43343      3381  MEOH      HO1             2.7757679647       10.5659747180       25.3662363003  MEOH      2689            0.0000000000
     43344      3381  MEOH      HO2             2.8363872208       12.1147413666       26.0649902551  MEOH      2689            0.0000000000
     43345      3381  MEOH      H1A             1.2661195522       12.8314850528       24.4892812455  MEOH      2689            0.0000000000
     43346      3381  MEOH      H1B             1.4839677342       11.2406487599       23.6774330121  MEOH      2689            0.0000000000
     43347      3381  MEOH      H1C             2.8725627526       12.3926229010       23.7682412137  MEOH      2689            0.0000000000
     43348      3381  MEOH      LP1A            2.6978252760       11.5261492253       25.6458910458  MEOH      2689            0.0000000000
     43349      3381  MEOH      LP1B            2.1084789397       11.2385244056       25.6958105689  MEOH      2689            0.0000000000
     43350      3382  MEOH      C1             -1.0366635765       -4.3081458364      -15.1004030494  MEOH      2690            0.0000000000
     43351      3382  MEOH      DC1            -1.0461350307       -4.3179399348      -15.0999888290  MEOH      2690            0.0000000000
     43352      3382  MEOH      O1              0.1223993584       -3.6603342070      -14.5665395426  MEOH      2690            0.0000000000
     43353      3382  MEOH      DO1             0.1132343819       -3.6730201991      -14.5522238723  MEOH      2690            0.0000000000
     43354      3382  MEOH      HO1             0.1424813079       -2.7532190840      -14.9095247738  MEOH      2690            0.0000000000
     43355      3382  MEOH      HO2             0.1359290532       -3.8501574757      -13.6153907243  MEOH      2690            0.0000000000
     43356      3382  MEOH      H1A            -0.9983549177       -5.3945852548      -14.8712680697  MEOH      2690            0.0000000000
     43357      3382  MEOH      H1B            -1.0633564172       -4.1845314320      -16.2041820001  MEOH      2690            0.0000000000
     43358      3382  MEOH      H1C            -1.9546298364       -3.8579215505      -14.6657111608  MEOH      2690            0.0000000000
     43359      3382  MEOH      LP1A            0.0448169178       -3.5092883190      -14.2604903560  MEOH      2690            0.0000000000
     43360      3382  MEOH      LP1B            0.3966455252       -3.7126081223      -14.7776235965  MEOH      2690            0.0000000000
     43361      3383  MEOH      C1            -19.2473041680      -25.2005249165       29.0101177076  MEOH      2691            0.0000000000
     43362      3383  MEOH      DC1           -19.2526620334      -25.2211513884       29.0143674255  MEOH      2691            0.0000000000
     43363      3383  MEOH      O1            -19.3813742523      -26.6258049310       29.0186400497  MEOH      2691            0.0000000000
     43364      3383  MEOH      DO1           -19.3761873149      -26.6405355493       29.0271764346  MEOH      2691            0.0000000000
     43365      3383  MEOH      HO1           -19.7550707495      -26.8807428103       28.1605855016  MEOH      2691            0.0000000000
     43366      3383  MEOH      HO2           -18.5265447357      -26.9741593761       29.3166596433  MEOH      2691            0.0000000000
     43367      3383  MEOH      H1A           -18.8914664208      -24.8458056202       30.0010136258  MEOH      2691            0.0000000000
     43368      3383  MEOH      H1B           -20.2169861164      -24.7170007836       28.7646745728  MEOH      2691            0.0000000000
     43369      3383  MEOH      H1C           -18.4876565088      -24.8765276835       28.2669607748  MEOH      2691            0.0000000000
     43370      3383  MEOH      LP1A          -19.0870482367      -26.7744305395       28.9012406245  MEOH      2691            0.0000000000
     43371      3383  MEOH      LP1B          -19.6938254626      -26.7158774581       29.1481050296  MEOH      2691            0.0000000000
     43372      3384  MEOH      C1             16.1507842371       -8.5359866727        5.1073576869  MEOH      2692            0.0000000000
     43373      3384  MEOH      DC1            16.1668706898       -8.5345994799        5.1117251058  MEOH      2692            0.0000000000
     43374      3384  MEOH      O1             17.2461981027       -7.7764576365        4.5905529317  MEOH      2692            0.0000000000
     43375      3384  MEOH      DO1            17.2611917226       -7.7871117093        4.5953890502  MEOH      2692            0.0000000000
     43376      3384  MEOH      HO1            17.2845014891       -7.9619277037        3.6392203375  MEOH      2692            0.0000000000
     43377      3384  MEOH      HO2            17.0810367364       -6.8625773632        4.8706325093  MEOH      2692            0.0000000000
     43378      3384  MEOH      H1A            15.9892957670       -8.2908352791        6.1788721621  MEOH      2692            0.0000000000
     43379      3384  MEOH      H1B            16.3550078128       -9.6248010736        5.0231143954  MEOH      2692            0.0000000000
     43380      3384  MEOH      H1C            15.2129180407       -8.2970852294        4.5617808379  MEOH      2692            0.0000000000
     43381      3384  MEOH      LP1A           17.1366257657       -7.4580480812        4.4951104986  MEOH      2692            0.0000000000
     43382      3384  MEOH      LP1B           17.5413368091       -7.9635842372        4.6099637359  MEOH      2692            0.0000000000
     43383      3385  MEOH      C1              1.1298208700      -14.0281381123       23.0498246132  MEOH      2693            0.0000000000
     43384      3385  MEOH      DC1             1.1167620021      -14.0449665380       23.0312542544  MEOH      2693            0.0000000000
     43385      3385  MEOH      O1              2.2096327112      -13.5056112636       23.8241788091  MEOH      2693            0.0000000000
     43386      3385  MEOH      DO1             2.1986311947      -13.5225087442       23.8111317549  MEOH      2693            0.0000000000
     43387      3385  MEOH      HO1             1.9017608596      -13.2998883632       24.7207238505  MEOH      2693            0.0000000000
     43388      3385  MEOH      HO2             2.9657245019      -14.0948172015       23.6756474408  MEOH      2693            0.0000000000
     43389      3385  MEOH      H1A             1.4445315500      -14.0727457018       21.9852644446  MEOH      2693            0.0000000000
     43390      3385  MEOH      H1B             0.2408587840      -13.3681525406       23.1419465719  MEOH      2693            0.0000000000
     43391      3385  MEOH      H1C             0.8743752320      -15.0494292673       23.4048357437  MEOH      2693            0.0000000000
     43392      3385  MEOH      LP1A            2.3816858398      -13.7668182343       23.9812413425  MEOH      2693            0.0000000000
     43393      3385  MEOH      LP1B            2.2256407067      -13.1578623555       23.7879235886  MEOH      2693            0.0000000000
     43394      3386  MEOH      C1              3.4113255374       36.3353253028       36.4608171061  MEOH      2694            0.0000000000
     43395      3386  MEOH      DC1             3.4056016541       36.3269540118       36.4656723115  MEOH      2694            0.0000000000
     43396      3386  MEOH      O1              2.6139793529       35.2387743805       36.8877880179  MEOH      2694            0.0000000000
     43397      3386  MEOH      DO1             2.6018884275       35.2287954536       36.8947104498  MEOH      2694            0.0000000000
     43398      3386  MEOH      HO1             3.2317442697       34.6193104167       37.3067521042  MEOH      2694            0.0000000000
     43399      3386  MEOH      HO2             1.8771111958       35.6194999507       37.3907525885  MEOH      2694            0.0000000000
     43400      3386  MEOH      H1A             2.7692681347       37.1403290094       36.0436213173  MEOH      2694            0.0000000000
     43401      3386  MEOH      H1B             4.1663523787       36.0188686318       35.7097441103  MEOH      2694            0.0000000000
     43402      3386  MEOH      H1C             3.9625527034       36.7057075476       37.3514834881  MEOH      2694            0.0000000000
     43403      3386  MEOH      LP1A            2.4939391530       35.2968863405       37.2113824407  MEOH      2694            0.0000000000
     43404      3386  MEOH      LP1B            2.5903684371       35.0011376362       36.6319144116  MEOH      2694            0.0000000000
     43405      3387  MEOH      C1              6.4578285020       11.6580760193       12.7373662021  MEOH      2695            0.0000000000
     43406      3387  MEOH      DC1             6.4790440058       11.6528708863       12.7304907984  MEOH      2695            0.0000000000
     43407      3387  MEOH      O1              7.7645940622       11.8069734153       13.2910330559  MEOH      2695            0.0000000000
     43408      3387  MEOH      DO1             7.7851723881       11.8041639147       13.2958939035  MEOH      2695            0.0000000000
     43409      3387  MEOH      HO1             7.9141368263       11.0184158259       13.8357475605  MEOH      2695            0.0000000000
     43410      3387  MEOH      HO2             8.3515643033       12.0537572757       12.5592792296  MEOH      2695            0.0000000000
     43411      3387  MEOH      H1A             6.1656027731       12.5887527549       12.2056087977  MEOH      2695            0.0000000000
     43412      3387  MEOH      H1B             5.7165913480       11.4596921031       13.5408164527  MEOH      2695            0.0000000000
     43413      3387  MEOH      H1C             6.4506174884       10.8029598733       12.0281092819  MEOH      2695            0.0000000000
     43414      3387  MEOH      LP1A            8.0026865682       11.6690949054       13.0746965701  MEOH      2695            0.0000000000
     43415      3387  MEOH      LP1B            7.7468995110       11.9798791376       13.5948265944  MEOH      2695            0.0000000000
     43416      3388  MEOH      C1             -3.9466956821      -29.4815364641       24.3781524439  MEOH      2696            0.0000000000
     43417      3388  MEOH      DC1            -3.9463656518      -29.4692934297       24.3728847076  MEOH      2696            0.0000000000
     43418      3388  MEOH      O1             -5.2849392119      -29.1217414558       24.7250607577  MEOH      2696            0.0000000000
     43419      3388  MEOH      DO1            -5.2800184600      -29.1088116943       24.7252470539  MEOH      2696            0.0000000000
     43420      3388  MEOH      HO1            -5.7027742551      -28.7270443543       23.9436977969  MEOH      2696            0.0000000000
     43421      3388  MEOH      HO2            -5.6731058280      -29.9307468104       25.0934858035  MEOH      2696            0.0000000000
     43422      3388  MEOH      H1A            -3.4432113619      -29.9484761980       25.2515319866  MEOH      2696            0.0000000000
     43423      3388  MEOH      H1B            -3.3726798078      -28.5802994075       24.0738523547  MEOH      2696            0.0000000000
     43424      3388  MEOH      H1C            -3.9618998420      -30.2203162070       23.5485173885  MEOH      2696            0.0000000000
     43425      3388  MEOH      LP1A           -5.5006014566      -29.3908074579       24.6651167615  MEOH      2696            0.0000000000
     43426      3388  MEOH      LP1B           -5.2918693757      -28.7963454723       24.8537830433  MEOH      2696            0.0000000000
     43427      3389  MEOH      C1             -3.9943974263       21.7350474070       28.3592269335  MEOH      2697            0.0000000000
     43428      3389  MEOH      DC1            -4.0015147303       21.7456790725       28.3758671401  MEOH      2697            0.0000000000
     43429      3389  MEOH      O1             -5.1772392350       22.3457283276       27.8487230568  MEOH      2697            0.0000000000
     43430      3389  MEOH      DO1            -5.1782256417       22.3491768923       27.8574679777  MEOH      2697            0.0000000000
     43431      3389  MEOH      HO1            -5.1075938189       22.3153232242       26.8817044191  MEOH      2697            0.0000000000
     43432      3389  MEOH      HO2            -5.9131028640       21.8938276693       28.2905267633  MEOH      2697            0.0000000000
     43433      3389  MEOH      H1A            -4.0242395000       21.7545916530       29.4696540922  MEOH      2697            0.0000000000
     43434      3389  MEOH      H1B            -3.0914679577       22.2759211759       28.0035656604  MEOH      2697            0.0000000000
     43435      3389  MEOH      H1C            -3.9317678861       20.6768332147       28.0266893206  MEOH      2697            0.0000000000
     43436      3389  MEOH      LP1A           -5.4286938918       22.1054385089       27.8095904791  MEOH      2697            0.0000000000
     43437      3389  MEOH      LP1B           -5.1280946171       22.6903988220       27.8128474823  MEOH      2697            0.0000000000
     43438      3390  MEOH      C1            -19.0918063812      -28.5620582098      -35.6704427667  MEOH      2698            0.0000000000
     43439      3390  MEOH      DC1           -19.0741857992      -28.5727689998      -35.6717616846  MEOH      2698            0.0000000000
     43440      3390  MEOH      O1            -17.8631517467      -29.3002885628      -35.7337418398  MEOH      2698            0.0000000000
     43441      3390  MEOH      DO1           -17.8508768528      -29.3051356512      -35.7263890474  MEOH      2698            0.0000000000
     43442      3390  MEOH      HO1           -17.8918203341      -29.9429870602      -35.0077826444  MEOH      2698            0.0000000000
     43443      3390  MEOH      HO2           -17.7944643208      -29.6257015663      -36.6449434724  MEOH      2698            0.0000000000
     43444      3390  MEOH      H1A           -19.1166143470      -27.7459683473      -36.4239033846  MEOH      2698            0.0000000000
     43445      3390  MEOH      H1B           -19.2047472767      -28.0782587353      -34.6767106987  MEOH      2698            0.0000000000
     43446      3390  MEOH      H1C           -19.9567591314      -29.2347647274      -35.8538649056  MEOH      2698            0.0000000000
     43447      3390  MEOH      LP1A          -17.9010482458      -29.5780471218      -35.9432986059  MEOH      2698            0.0000000000
     43448      3390  MEOH      LP1B          -17.6169859031      -29.1395254537      -35.5438534509  MEOH      2698            0.0000000000
     43449      3391  MEOH      C1             24.7651119089      -15.8596606644       27.7766159536  MEOH      2699            0.0000000000
     43450      3391  MEOH      DC1            24.7710553308      -15.8630024262       27.7786891654  MEOH      2699            0.0000000000
     43451      3391  MEOH      O1             25.1360896191      -16.8350603339       26.8093483235  MEOH      2699            0.0000000000
     43452      3391  MEOH      DO1            25.1525082352      -16.8401408352       26.8112876559  MEOH      2699            0.0000000000
     43453      3391  MEOH      HO1            25.1923535716      -16.3740359614       25.9577669148  MEOH      2699            0.0000000000
     43454      3391  MEOH      HO2            25.8902966451      -17.3209923928       27.1780511817  MEOH      2699            0.0000000000
     43455      3391  MEOH      H1A            24.4566695883      -16.3693962380       28.7143547124  MEOH      2699            0.0000000000
     43456      3391  MEOH      H1B            23.9109566097      -15.2593654644       27.3966351646  MEOH      2699            0.0000000000
     43457      3391  MEOH      H1C            25.6218609657      -15.1832828262       27.9835339916  MEOH      2699            0.0000000000
     43458      3391  MEOH      LP1A           25.4848171005      -16.8561210587       26.7882393296  MEOH      2699            0.0000000000
     43459      3391  MEOH      LP1B           24.8499809648      -16.9861626857       26.6758945218  MEOH      2699            0.0000000000
     43460      3392  MEOH      C1            -30.1975007847       15.4937833048      -36.0020569487  MEOH      2700            0.0000000000
     43461      3392  MEOH      DC1           -30.1902512598       15.4969318578      -36.0021699612  MEOH      2700            0.0000000000
     43462      3392  MEOH      O1            -29.6493857359       14.3529605385      -36.6712190067  MEOH      2700            0.0000000000
     43463      3392  MEOH      DO1           -29.6475810651       14.3534869449      -36.6732811991  MEOH      2700            0.0000000000
     43464      3392  MEOH      HO1           -29.5955871665       13.6371599425      -36.0188117561  MEOH      2700            0.0000000000
     43465      3392  MEOH      HO2           -30.1720083596       14.2361633909      -37.4799983471  MEOH      2700            0.0000000000
     43466      3392  MEOH      H1A           -30.1884766922       16.3772416801      -36.6756598477  MEOH      2700            0.0000000000
     43467      3392  MEOH      H1B           -29.5941932113       15.7376397242      -35.1015709584  MEOH      2700            0.0000000000
     43468      3392  MEOH      H1C           -31.2479318084       15.2937535085      -35.7005544654  MEOH      2700            0.0000000000
     43469      3392  MEOH      LP1A          -29.9063551948       14.1630550802      -36.8140567261  MEOH      2700            0.0000000000
     43470      3392  MEOH      LP1B          -29.3000666230       14.3581323084      -36.6500197104  MEOH      2700            0.0000000000
     43471      3393  MEOH      C1             19.6478849936       34.0196376424      -25.0432150354  MEOH      2701            0.0000000000
     43472      3393  MEOH      DC1            19.6519951302       34.0347679501      -25.0435074717  MEOH      2701            0.0000000000
     43473      3393  MEOH      O1             19.5258814896       32.6285068570      -24.7433531304  MEOH      2701            0.0000000000
     43474      3393  MEOH      DO1            19.5339313811       32.6406463872      -24.7419358825  MEOH      2701            0.0000000000
     43475      3393  MEOH      HO1            19.2825426899       32.1570093491      -25.5553730376  MEOH      2701            0.0000000000
     43476      3393  MEOH      HO2            20.3280992629       32.3876564446      -24.2541315823  MEOH      2701            0.0000000000
     43477      3393  MEOH      H1A            19.7817473768       34.5861133139      -24.0969026258  MEOH      2701            0.0000000000
     43478      3393  MEOH      H1B            18.7317722619       34.3825460189      -25.5563972380  MEOH      2701            0.0000000000
     43479      3393  MEOH      H1C            20.5318604945       34.1846257557      -25.6956621501  MEOH      2701            0.0000000000
     43480      3393  MEOH      LP1A           19.8353317974       32.4698904410      -24.7831191912  MEOH      2701            0.0000000000
     43481      3393  MEOH      LP1B           19.1986893773       32.5560630491      -24.6423718630  MEOH      2701            0.0000000000
     43482      3394  MEOH      C1             33.9387255763       24.7490072582       -1.4509282420  MEOH      2702            0.0000000000
     43483      3394  MEOH      DC1            33.9438902864       24.7610868667       -1.4433638841  MEOH      2702            0.0000000000
     43484      3394  MEOH      O1             34.6795645356       25.8191723768       -0.8551478145  MEOH      2702            0.0000000000
     43485      3394  MEOH      DO1            34.6868515376       25.8242050760       -0.8457099772  MEOH      2702            0.0000000000
     43486      3394  MEOH      HO1            35.3335145090       26.0991392229       -1.5145930339  MEOH      2702            0.0000000000
     43487      3394  MEOH      HO2            34.0163226839       26.4493850966       -0.5329022951  MEOH      2702            0.0000000000
     43488      3394  MEOH      H1A            33.2421261444       24.3167126732       -0.7011338542  MEOH      2702            0.0000000000
     43489      3394  MEOH      H1B            34.6246132160       23.9538248437       -1.8136458640  MEOH      2702            0.0000000000
     43490      3394  MEOH      H1C            33.3475415126       25.1073777710       -2.3206368021  MEOH      2702            0.0000000000
     43491      3394  MEOH      LP1A           34.5229943124       26.1249549006       -0.9221016295  MEOH      2702            0.0000000000
     43492      3394  MEOH      LP1B           34.9537205149       25.6914448121       -0.6790110260  MEOH      2702            0.0000000000
     43493      3395  MEOH      C1            -35.2983949557       22.7014430433       -5.5425096671  MEOH      2703            0.0000000000
     43494      3395  MEOH      DC1           -35.3059426191       22.7138878811       -5.5366712662  MEOH      2703            0.0000000000
     43495      3395  MEOH      O1            -36.2930142672       21.6899087694       -5.4349852065  MEOH      2703            0.0000000000
     43496      3395  MEOH      DO1           -36.3026493234       21.6975510129       -5.4347175250  MEOH      2703            0.0000000000
     43497      3395  MEOH      HO1           -36.8590493164       21.7468613413       -6.2206446296  MEOH      2703            0.0000000000
     43498      3395  MEOH      HO2           -35.8142032040       20.8635515411       -5.2653570928  MEOH      2703            0.0000000000
     43499      3395  MEOH      H1A           -34.6226302662       22.6331598119       -4.6633052052  MEOH      2703            0.0000000000
     43500      3395  MEOH      H1B           -35.7622027803       23.7105868499       -5.5713554557  MEOH      2703            0.0000000000
     43501      3395  MEOH      H1C           -34.7064656532       22.5341291101       -6.4676835699  MEOH      2703            0.0000000000
     43502      3395  MEOH      LP1A          -36.1771538989       21.3923825871       -5.5783537732  MEOH      2703            0.0000000000
     43503      3395  MEOH      LP1B          -36.5717886839       21.8138887527       -5.2634807215  MEOH      2703            0.0000000000
     43504      3396  MEOH      C1            -29.1121689964      -22.2988482766        2.0084783385  MEOH      2704            0.0000000000
     43505      3396  MEOH      DC1           -29.0950956438      -22.3050885014        1.9870612021  MEOH      2704            0.0000000000
     43506      3396  MEOH      O1            -30.4659278564      -21.8652847193        2.1157625933  MEOH      2704            0.0000000000
     43507      3396  MEOH      DO1           -30.4627681083      -21.8694353143        2.1050732238  MEOH      2704            0.0000000000
     43508      3396  MEOH      HO1           -30.8807155716      -22.4352022598        2.7821297207  MEOH      2704            0.0000000000
     43509      3396  MEOH      HO2           -30.4165341156      -20.9102948254        2.2784111762  MEOH      2704            0.0000000000
     43510      3396  MEOH      H1A           -28.5731603115      -21.6442979495        1.2905963789  MEOH      2704            0.0000000000
     43511      3396  MEOH      H1B           -29.0881217334      -23.3525163780        1.6570153088  MEOH      2704            0.0000000000
     43512      3396  MEOH      H1C           -28.6251458561      -22.2309926321        3.0047338653  MEOH      2704            0.0000000000
     43513      3396  MEOH      LP1A          -30.4919427731      -21.6124685304        2.3564017397  MEOH      2704            0.0000000000
     43514      3396  MEOH      LP1B          -30.6653288348      -22.0372464481        1.8851798237  MEOH      2704            0.0000000000
     43515      3397  MEOH      C1            -19.4432445611       15.9418157979       -0.3841634717  MEOH      2705            0.0000000000
     43516      3397  MEOH      DC1           -19.4767229861       15.9290095982       -0.3912128468  MEOH      2705            0.0000000000
     43517      3397  MEOH      O1            -20.5199339055       15.1138203831       -0.7997750138  MEOH      2705            0.0000000000
     43518      3397  MEOH      DO1           -20.5593862358       15.1227150827       -0.7957262872  MEOH      2705            0.0000000000
     43519      3397  MEOH      HO1           -20.8044824504       14.6161440321       -0.0173107173  MEOH      2705            0.0000000000
     43520      3397  MEOH      HO2           -21.0963927942       15.6410670673       -1.3747585651  MEOH      2705            0.0000000000
     43521      3397  MEOH      H1A           -18.8237321210       16.2475518997       -1.2542501186  MEOH      2705            0.0000000000
     43522      3397  MEOH      H1B           -18.7828321518       15.4179333196        0.3395240290  MEOH      2705            0.0000000000
     43523      3397  MEOH      H1C           -19.8606969194       16.8498717739        0.1011084878  MEOH      2705            0.0000000000
     43524      3397  MEOH      LP1A          -20.8230629122       15.2853683159       -0.7653640854  MEOH      2705            0.0000000000
     43525      3397  MEOH      LP1B          -20.3973613613       14.8068644072       -0.9149010329  MEOH      2705            0.0000000000
     43526      3398  MEOH      C1            -24.3139748849      -18.1769672828       22.0276087491  MEOH      2706            0.0000000000
     43527      3398  MEOH      DC1           -24.3147117786      -18.1771124600       22.0296243157  MEOH      2706            0.0000000000
     43528      3398  MEOH      O1            -25.1630574967      -17.0619297099       22.3053358044  MEOH      2706            0.0000000000
     43529      3398  MEOH      DO1           -25.1660917311      -17.0627982034       22.3174512729  MEOH      2706            0.0000000000
     43530      3398  MEOH      HO1           -25.8870764031      -17.3725908106       22.8711858761  MEOH      2706            0.0000000000
     43531      3398  MEOH      HO2           -24.5761087461      -16.3436315406       22.5889533387  MEOH      2706            0.0000000000
     43532      3398  MEOH      H1A           -23.4957445081      -17.8628902245       21.3448381785  MEOH      2706            0.0000000000
     43533      3398  MEOH      H1B           -24.8876212314      -18.9877429247       21.5297194751  MEOH      2706            0.0000000000
     43534      3398  MEOH      H1C           -23.8697336997      -18.5748220200       22.9649893431  MEOH      2706            0.0000000000
     43535      3398  MEOH      LP1A          -25.0519788343      -16.8954786306       22.5924865817  MEOH      2706            0.0000000000
     43536      3398  MEOH      LP1B          -25.4096113522      -17.0347841888       22.0584060229  MEOH      2706            0.0000000000
     43537      3399  MEOH      C1            -10.2502475490      -12.0352352901       -2.2325560403  MEOH      2707            0.0000000000
     43538      3399  MEOH      DC1           -10.2620091726      -12.0331170935       -2.2401272142  MEOH      2707            0.0000000000
     43539      3399  MEOH      O1             -9.0520475366      -12.5295184827       -1.6345878934  MEOH      2707            0.0000000000
     43540      3399  MEOH      DO1            -9.0558053131      -12.5296275699       -1.6399990663  MEOH      2707            0.0000000000
     43541      3399  MEOH      HO1            -8.3136332375      -11.9936972710       -1.9640419144  MEOH      2707            0.0000000000
     43542      3399  MEOH      HO2            -9.2360817449      -12.5806101484       -0.6835773506  MEOH      2707            0.0000000000
     43543      3399  MEOH      H1A           -11.0930636173      -12.7027866984       -1.9526324923  MEOH      2707            0.0000000000
     43544      3399  MEOH      H1B           -10.1505414244      -12.0349450667       -3.3390729197  MEOH      2707            0.0000000000
     43545      3399  MEOH      H1C           -10.4612375141      -11.0067602068       -1.8691784975  MEOH      2707            0.0000000000
     43546      3399  MEOH      LP1A           -8.9939060440      -12.3663493856       -1.3304573086  MEOH      2707            0.0000000000
     43547      3399  MEOH      LP1B           -8.9153093472      -12.7835253232       -1.8327877738  MEOH      2707            0.0000000000
     43548      3400  MEOH      C1             -5.1619512112        8.8127726269       27.8274979523  MEOH      2708            0.0000000000
     43549      3400  MEOH      DC1            -5.1740092717        8.8408207414       27.8355565148  MEOH      2708            0.0000000000
     43550      3400  MEOH      O1             -4.2013354842        8.2603763727       26.9323882784  MEOH      2708            0.0000000000
     43551      3400  MEOH      DO1            -4.2078419905        8.2791706508       26.9376084710  MEOH      2708            0.0000000000
     43552      3400  MEOH      HO1            -4.4892698438        7.3585988066       26.7207493694  MEOH      2708            0.0000000000
     43553      3400  MEOH      HO2            -4.0816131221        8.9160765712       26.2276728709  MEOH      2708            0.0000000000
     43554      3400  MEOH      H1A            -4.7980352071        9.7945712152       28.1989244946  MEOH      2708            0.0000000000
     43555      3400  MEOH      H1B            -5.2911746942        8.1252981142       28.6906324068  MEOH      2708            0.0000000000
     43556      3400  MEOH      H1C            -6.1319710174        8.9351567512       27.2998572585  MEOH      2708            0.0000000000
     43557      3400  MEOH      LP1A           -4.2896869836        8.3337747784       26.6017726608  MEOH      2708            0.0000000000
     43558      3400  MEOH      LP1B           -3.9455511620        8.1039276464       27.1129379297  MEOH      2708            0.0000000000
     43559      3401  MEOH      C1             -5.1904603041      -32.7429640426       31.7815885763  MEOH      2709            0.0000000000
     43560      3401  MEOH      DC1            -5.1868990672      -32.7339327115       31.7801523133  MEOH      2709            0.0000000000
     43561      3401  MEOH      O1             -6.1422019285      -33.7373617299       32.1614788419  MEOH      2709            0.0000000000
     43562      3401  MEOH      DO1            -6.1362005772      -33.7319016843       32.1611211203  MEOH      2709            0.0000000000
     43563      3401  MEOH      HO1            -6.7603904088      -33.8693612191       31.4257349069  MEOH      2709            0.0000000000
     43564      3401  MEOH      HO2            -5.6291295134      -34.4818142625       32.5128292718  MEOH      2709            0.0000000000
     43565      3401  MEOH      H1A            -4.5943935853      -32.4496407613       32.6720867076  MEOH      2709            0.0000000000
     43566      3401  MEOH      H1B            -5.7087155186      -31.8377259107       31.3991275221  MEOH      2709            0.0000000000
     43567      3401  MEOH      H1C            -4.5083091429      -33.1467935545       31.0031847489  MEOH      2709            0.0000000000
     43568      3401  MEOH      LP1A           -6.0236634693      -34.0553800830       32.0759629909  MEOH      2709            0.0000000000
     43569      3401  MEOH      LP1B           -6.4151634869      -33.5871019338       32.3208964737  MEOH      2709            0.0000000000
     43570      3402  MEOH      C1              0.0756972334      -29.5149295527       18.7233166340  MEOH      2710            0.0000000000
     43571      3402  MEOH      DC1             0.0675187552      -29.5198071611       18.7453567504  MEOH      2710            0.0000000000
     43572      3402  MEOH      O1             -1.2702155475      -29.7211727901       19.1206408203  MEOH      2710            0.0000000000
     43573      3402  MEOH      DO1            -1.2749755925      -29.7232462439       19.1501940546  MEOH      2710            0.0000000000
     43574      3402  MEOH      HO1            -1.7100589843      -28.8728196244       18.9541035634  MEOH      2710            0.0000000000
     43575      3402  MEOH      HO2            -1.5694209763      -30.5042814111       18.6326684860  MEOH      2710            0.0000000000
     43576      3402  MEOH      H1A             0.6330978871      -30.4746930589       18.7731114468  MEOH      2710            0.0000000000
     43577      3402  MEOH      H1B             0.5917342841      -28.7589835217       19.3530565505  MEOH      2710            0.0000000000
     43578      3402  MEOH      H1C             0.0480447301      -29.1289413269       17.6818900022  MEOH      2710            0.0000000000
     43579      3402  MEOH      LP1A           -1.4573766104      -29.8425924635       18.8509595280  MEOH      2710            0.0000000000
     43580      3402  MEOH      LP1B           -1.3077212148      -29.6453887903       19.4602731366  MEOH      2710            0.0000000000
     43581      3403  MEOH      C1             26.5551043837       -3.9891299634       19.5133542668  MEOH      2711            0.0000000000
     43582      3403  MEOH      DC1            26.5590297132       -3.9889673803       19.4808887733  MEOH      2711            0.0000000000
     43583      3403  MEOH      O1             25.7497520494       -3.9706506781       18.3309457172  MEOH      2711            0.0000000000
     43584      3403  MEOH      DO1            25.7570240489       -3.9753019637       18.3003665939  MEOH      2711            0.0000000000
     43585      3403  MEOH      HO1            25.2729390864       -4.8152206980       18.3467849018  MEOH      2711            0.0000000000
     43586      3403  MEOH      HO2            25.2374089561       -3.1490139752       18.3885450591  MEOH      2711            0.0000000000
     43587      3403  MEOH      H1A            27.0988869165       -3.0274409299       19.6307244501  MEOH      2711            0.0000000000
     43588      3403  MEOH      H1B            27.2835181803       -4.8256859386       19.4508367302  MEOH      2711            0.0000000000
     43589      3403  MEOH      H1C            25.9226753598       -4.1315177905       20.4156182175  MEOH      2711            0.0000000000
     43590      3403  MEOH      LP1A           25.4400044934       -3.8227554250       18.3993814219  MEOH      2711            0.0000000000
     43591      3403  MEOH      LP1B           25.9288843107       -4.1050864070       18.0619872302  MEOH      2711            0.0000000000
     43592      3404  MEOH      C1             -5.7167618069        9.5480888323       13.1205181190  MEOH      2712            0.0000000000
     43593      3404  MEOH      DC1            -5.7132044972        9.5488026453       13.1314601928  MEOH      2712            0.0000000000
     43594      3404  MEOH      O1             -5.2761734023        9.1509622979       11.8182504343  MEOH      2712            0.0000000000
     43595      3404  MEOH      DO1            -5.2663172108        9.1569815579       11.8286725881  MEOH      2712            0.0000000000
     43596      3404  MEOH      HO1            -6.0446152913        9.1247966119       11.2268855539  MEOH      2712            0.0000000000
     43597      3404  MEOH      HO2            -4.5033132713        9.6996534182       11.6120338674  MEOH      2712            0.0000000000
     43598      3404  MEOH      H1A            -4.8986660493        9.3778380604       13.8526758941  MEOH      2712            0.0000000000
     43599      3404  MEOH      H1B            -6.6074045314        8.9526266609       13.4146292219  MEOH      2712            0.0000000000
     43600      3404  MEOH      H1C            -5.9836000212       10.6263723287       13.1410867543  MEOH      2712            0.0000000000
     43601      3404  MEOH      LP1A           -5.1837506692        9.4325766701       11.6321016126  MEOH      2712            0.0000000000
     43602      3404  MEOH      LP1B           -5.2841018333        8.8021626067       11.7903951766  MEOH      2712            0.0000000000
     43603      3405  MEOH      C1            -29.3516334921       26.2506768751        0.0109747309  MEOH      2713            0.0000000000
     43604      3405  MEOH      DC1           -29.3702681444       26.2511457847        0.0317132308  MEOH      2713            0.0000000000
     43605      3405  MEOH      O1            -28.3410104514       26.6943904461       -0.8895705437  MEOH      2713            0.0000000000
     43606      3405  MEOH      DO1           -28.3612018841       26.6900118409       -0.8760297131  MEOH      2713            0.0000000000
     43607      3405  MEOH      HO1           -28.5839876769       27.5524251777       -1.2711966273  MEOH      2713            0.0000000000
     43608      3405  MEOH      HO2           -27.4977757637       26.5942094670       -0.4207219190  MEOH      2713            0.0000000000
     43609      3405  MEOH      H1A           -29.0842169045       25.2260755985        0.3471318269  MEOH      2713            0.0000000000
     43610      3405  MEOH      H1B           -30.3372733532       26.2187676373       -0.5007057013  MEOH      2713            0.0000000000
     43611      3405  MEOH      H1C           -29.3938367119       26.9237795774        0.8938522095  MEOH      2713            0.0000000000
     43612      3405  MEOH      LP1A          -28.0999686542       26.8802886804       -0.7168259389  MEOH      2713            0.0000000000
     43613      3405  MEOH      LP1B          -28.4061245266       26.5735616364       -1.2115341378  MEOH      2713            0.0000000000
     43614      3406  MEOH      C1             14.2202147758       35.7002483451       10.3162621181  MEOH      2714            0.0000000000
     43615      3406  MEOH      DC1            14.2270291975       35.7022782204       10.3188786523  MEOH      2714            0.0000000000
     43616      3406  MEOH      O1             15.1924986571       35.9632176068       11.3121813525  MEOH      2714            0.0000000000
     43617      3406  MEOH      DO1            15.1935586313       35.9763796236       11.3010299464  MEOH      2714            0.0000000000
     43618      3406  MEOH      HO1            16.0456229278       35.5610778411       11.0855481961  MEOH      2714            0.0000000000
     43619      3406  MEOH      HO2            15.1429738433       36.9164569661       11.4847560240  MEOH      2714            0.0000000000
     43620      3406  MEOH      H1A            13.2240762271       35.9497835373       10.7402446426  MEOH      2714            0.0000000000
     43621      3406  MEOH      H1B            14.2283646811       34.6214532057       10.0508273296  MEOH      2714            0.0000000000
     43622      3406  MEOH      H1C            14.4104093789       36.3224388387        9.4156922970  MEOH      2714            0.0000000000
     43623      3406  MEOH      LP1A           15.3583280361       36.2631868463       11.2413359404  MEOH      2714            0.0000000000
     43624      3406  MEOH      LP1B           15.1832393546       35.7136318306       11.5573776119  MEOH      2714            0.0000000000
     43625      3407  MEOH      C1            -25.5193939622       30.4461498990       28.7329609218  MEOH      2715            0.0000000000
     43626      3407  MEOH      DC1           -25.5193223442       30.4398372178       28.7347665902  MEOH      2715            0.0000000000
     43627      3407  MEOH      O1            -26.3051820219       31.5999242058       28.4374161040  MEOH      2715            0.0000000000
     43628      3407  MEOH      DO1           -26.3160842220       31.5930556794       28.4512747153  MEOH      2715            0.0000000000
     43629      3407  MEOH      HO1           -25.7751555546       32.3835828286       28.6515448237  MEOH      2715            0.0000000000
     43630      3407  MEOH      HO2           -26.5920257320       31.4820286964       27.5183288748  MEOH      2715            0.0000000000
     43631      3407  MEOH      H1A           -26.0782110480       29.5353684092       28.4287873807  MEOH      2715            0.0000000000
     43632      3407  MEOH      H1B           -25.3124280192       30.3979927575       29.8234502561  MEOH      2715            0.0000000000
     43633      3407  MEOH      H1C           -24.5594841721       30.4889657083       28.1752324908  MEOH      2715            0.0000000000
     43634      3407  MEOH      LP1A          -26.2559380004       31.6962408157       28.1045525629  MEOH      2715            0.0000000000
     43635      3407  MEOH      LP1B          -26.4948985601       31.6904432011       28.7172623950  MEOH      2715            0.0000000000
     43636      3408  MEOH      C1             25.1715863338      -33.3107775938       -9.6347038179  MEOH      2716            0.0000000000
     43637      3408  MEOH      DC1            25.1633524319      -33.3075778386       -9.6344381039  MEOH      2716            0.0000000000
     43638      3408  MEOH      O1             25.7650549849      -32.2028852002       -8.9557214535  MEOH      2716            0.0000000000
     43639      3408  MEOH      DO1            25.7515722350      -32.1951967011       -8.9497915232  MEOH      2716            0.0000000000
     43640      3408  MEOH      HO1            26.3517949473      -31.7627834940       -9.5905022856  MEOH      2716            0.0000000000
     43641      3408  MEOH      HO2            25.0447499098      -31.7332375581       -8.5068431933  MEOH      2716            0.0000000000
     43642      3408  MEOH      H1A            24.6518974183      -33.9658714456       -8.9032009290  MEOH      2716            0.0000000000
     43643      3408  MEOH      H1B            25.9694336377      -33.8965656339      -10.1392957849  MEOH      2716            0.0000000000
     43644      3408  MEOH      H1C            24.4395253266      -32.9618264785      -10.3940725039  MEOH      2716            0.0000000000
     43645      3408  MEOH      LP1A           25.5632230075      -31.9190710754       -8.9905552807  MEOH      2716            0.0000000000
     43646      3408  MEOH      LP1B           26.0605464255      -32.3037467084       -8.7975703717  MEOH      2716            0.0000000000
     43647      3409  MEOH      C1             -7.3093647249      -22.4157610230      -19.8288126681  MEOH      2717            0.0000000000
     43648      3409  MEOH      DC1            -7.3051175536      -22.4326203040      -19.8305923620  MEOH      2717            0.0000000000
     43649      3409  MEOH      O1             -7.0819399312      -23.2238202162      -18.6723731149  MEOH      2717            0.0000000000
     43650      3409  MEOH      DO1            -7.0720124042      -23.2270758076      -18.6758451024  MEOH      2717            0.0000000000
     43651      3409  MEOH      HO1            -7.9425805882      -23.3637368025      -18.2473778109  MEOH      2717            0.0000000000
     43652      3409  MEOH      HO2            -6.5623676760      -23.9855991498      -18.9734337878  MEOH      2717            0.0000000000
     43653      3409  MEOH      H1A            -6.3455236331      -22.1898535014      -20.3330915012  MEOH      2717            0.0000000000
     43654      3409  MEOH      H1B            -7.7607917163      -21.4476654082      -19.5233203551  MEOH      2717            0.0000000000
     43655      3409  MEOH      H1C            -7.9902212094      -22.9333698238      -20.5379223756  MEOH      2717            0.0000000000
     43656      3409  MEOH      LP1A           -7.1023687498      -23.5627540637      -18.7572642828  MEOH      2717            0.0000000000
     43657      3409  MEOH      LP1B           -7.0121846313      -23.0205392147      -18.3961285990  MEOH      2717            0.0000000000
     43658      3410  MEOH      C1            -18.6785497913      -11.0524179133      -28.6990748612  MEOH      2718            0.0000000000
     43659      3410  MEOH      DC1           -18.6850752232      -11.0705196453      -28.6968353168  MEOH      2718            0.0000000000
     43660      3410  MEOH      O1            -20.0992406655      -11.2159899854      -28.6319138479  MEOH      2718            0.0000000000
     43661      3410  MEOH      DO1           -20.1010571014      -11.2422398453      -28.6262200700  MEOH      2718            0.0000000000
     43662      3410  MEOH      HO1           -20.4237386836      -10.5209888628      -28.0381340265  MEOH      2718            0.0000000000
     43663      3410  MEOH      HO2           -20.4039736278      -11.2144720622      -29.5528022872  MEOH      2718            0.0000000000
     43664      3410  MEOH      H1A           -18.2346560567      -11.8251755097      -29.3624940723  MEOH      2718            0.0000000000
     43665      3410  MEOH      H1B           -18.2232678642      -11.1391057024      -27.6893597551  MEOH      2718            0.0000000000
     43666      3410  MEOH      H1C           -18.4204286251      -10.0553859998      -29.1157543874  MEOH      2718            0.0000000000
     43667      3410  MEOH      LP1A          -20.2531439040      -11.0315068300      -28.8864325280  MEOH      2718            0.0000000000
     43668      3410  MEOH      LP1B          -20.1822269711      -11.4367729847      -28.3733251004  MEOH      2718            0.0000000000
     43669      3411  MEOH      C1            -33.2733814743      -28.5344832561      -17.8738151132  MEOH      2719            0.0000000000
     43670      3411  MEOH      DC1           -33.2888514101      -28.5202008476      -17.8458981839  MEOH      2719            0.0000000000
     43671      3411  MEOH      O1            -32.5864138636      -29.1956928583      -18.9273704752  MEOH      2719            0.0000000000
     43672      3411  MEOH      DO1           -32.6086524111      -29.1762327039      -18.9004803687  MEOH      2719            0.0000000000
     43673      3411  MEOH      HO1           -31.6646830801      -29.3908525248      -18.6966648893  MEOH      2719            0.0000000000
     43674      3411  MEOH      HO2           -33.1600597974      -29.9266820709      -19.2057319588  MEOH      2719            0.0000000000
     43675      3411  MEOH      H1A           -34.2847927583      -28.2555065067      -18.2392466223  MEOH      2719            0.0000000000
     43676      3411  MEOH      H1B           -32.7303016434      -27.6127461845      -17.5741718766  MEOH      2719            0.0000000000
     43677      3411  MEOH      H1C           -33.3798746980      -29.2222899218      -17.0078461851  MEOH      2719            0.0000000000
     43678      3411  MEOH      LP1A          -32.6255440035      -29.5421607521      -18.8968937516  MEOH      2719            0.0000000000
     43679      3411  MEOH      LP1B          -32.4410567154      -28.9603100849      -19.1417678853  MEOH      2719            0.0000000000
     43680      3412  MEOH      C1              4.3618313826      -14.3252310114      -33.8570020991  MEOH      2720            0.0000000000
     43681      3412  MEOH      DC1             4.3516451713      -14.3412549066      -33.8429839289  MEOH      2720            0.0000000000
     43682      3412  MEOH      O1              4.2755321810      -12.9091164468      -33.7057631954  MEOH      2720            0.0000000000
     43683      3412  MEOH      DO1             4.2570408972      -12.9153863706      -33.6885730570  MEOH      2720            0.0000000000
     43684      3412  MEOH      HO1             5.1790069037      -12.5737877890      -33.8161630036  MEOH      2720            0.0000000000
     43685      3412  MEOH      HO2             3.5710230219      -12.6320184753      -34.3122148084  MEOH      2720            0.0000000000
     43686      3412  MEOH      H1A             3.3602028386      -14.7762767523      -33.6908124505  MEOH      2720            0.0000000000
     43687      3412  MEOH      H1B             5.0880296602      -14.7318008694      -33.1210279054  MEOH      2720            0.0000000000
     43688      3412  MEOH      H1C             4.7092300921      -14.5686492186      -34.8838334940  MEOH      2720            0.0000000000
     43689      3412  MEOH      LP1A            4.2114663545      -12.7593287742      -34.0155360525  MEOH      2720            0.0000000000
     43690      3412  MEOH      LP1B            4.3137981396      -12.8221517192      -33.3689058776  MEOH      2720            0.0000000000
     43691      3413  MEOH      C1             26.0972631552       -9.9353768919        5.7937979263  MEOH      2721            0.0000000000
     43692      3413  MEOH      DC1            26.0876283686       -9.9243356890        5.7911578562  MEOH      2721            0.0000000000
     43693      3413  MEOH      O1             26.0525409184      -11.1717702482        5.0865805549  MEOH      2721            0.0000000000
     43694      3413  MEOH      DO1            26.0447305418      -11.1576101297        5.0808164944  MEOH      2721            0.0000000000
     43695      3413  MEOH      HO1            26.5470716421      -11.8199033994        5.6121876156  MEOH      2721            0.0000000000
     43696      3413  MEOH      HO2            25.1170273153      -11.3259130524        4.8817530804  MEOH      2721            0.0000000000
     43697      3413  MEOH      H1A            25.6080373468       -9.1438510189        5.1867840030  MEOH      2721            0.0000000000
     43698      3413  MEOH      H1B            27.1501619098       -9.6399861710        5.9899344479  MEOH      2721            0.0000000000
     43699      3413  MEOH      H1C            25.5622259382      -10.0420044525        6.7616237060  MEOH      2721            0.0000000000
     43700      3413  MEOH      LP1A           25.7697660229      -11.3543690378        5.1824765428  MEOH      2721            0.0000000000
     43701      3413  MEOH      LP1B           26.3215662905      -11.1919329597        4.8636033941  MEOH      2721            0.0000000000
     43702      3414  MEOH      C1             29.3803956218       12.5115652159      -28.1660790623  MEOH      2722            0.0000000000
     43703      3414  MEOH      DC1            29.3552140976       12.5129398448      -28.1704992455  MEOH      2722            0.0000000000
     43704      3414  MEOH      O1             28.2570579572       11.9405154834      -28.8336107005  MEOH      2722            0.0000000000
     43705      3414  MEOH      DO1            28.2464242634       11.9431072652      -28.8384645093  MEOH      2722            0.0000000000
     43706      3414  MEOH      HO1            27.6449967127       11.6246128810      -28.1506124717  MEOH      2722            0.0000000000
     43707      3414  MEOH      HO2            27.9788902092       12.5891249957      -29.4990642335  MEOH      2722            0.0000000000
     43708      3414  MEOH      H1A            30.1715417013       12.7467092706      -28.9097968554  MEOH      2722            0.0000000000
     43709      3414  MEOH      H1B            29.8054791493       11.8028002045      -27.4235986561  MEOH      2722            0.0000000000
     43710      3414  MEOH      H1C            29.0788538327       13.4409478875      -27.6372677547  MEOH      2722            0.0000000000
     43711      3414  MEOH      LP1A           28.0154987211       12.1866374437      -28.8933862484  MEOH      2722            0.0000000000
     43712      3414  MEOH      LP1B           28.3147891546       11.6010033930      -28.8960498652  MEOH      2722            0.0000000000
     43713      3415  MEOH      C1            -13.6327545256      -16.1547459200       -3.3663118491  MEOH      2723            0.0000000000
     43714      3415  MEOH      DC1           -13.6306735073      -16.1488987128       -3.3526096811  MEOH      2723            0.0000000000
     43715      3415  MEOH      O1            -13.3176979289      -15.1502942110       -2.4007254405  MEOH      2723            0.0000000000
     43716      3415  MEOH      DO1           -13.3108413607      -15.1436357937       -2.3878208866  MEOH      2723            0.0000000000
     43717      3415  MEOH      HO1           -14.1426005382      -14.6618788484       -2.2527858563  MEOH      2723            0.0000000000
     43718      3415  MEOH      HO2           -12.8602589772      -15.6071924178       -1.6776115947  MEOH      2723            0.0000000000
     43719      3415  MEOH      H1A           -12.7102060960      -16.6712944492       -3.7074907063  MEOH      2723            0.0000000000
     43720      3415  MEOH      H1B           -14.1297417909      -15.6937022832       -4.2465183153  MEOH      2723            0.0000000000
     43721      3415  MEOH      H1C           -14.3172286598      -16.9053220418       -2.9163655786  MEOH      2723            0.0000000000
     43722      3415  MEOH      LP1A          -13.3654779898      -15.2757794856       -2.0775064565  MEOH      2723            0.0000000000
     43723      3415  MEOH      LP1B          -13.2062671257      -14.8602044186       -2.5617567681  MEOH      2723            0.0000000000
     43724      3416  MEOH      C1            -21.5148716899      -20.6186028510      -12.6241331984  MEOH      2724            0.0000000000
     43725      3416  MEOH      DC1           -21.5215359269      -20.6195145985      -12.6062309639  MEOH      2724            0.0000000000
     43726      3416  MEOH      O1            -20.5059120319      -19.6097432705      -12.5628081494  MEOH      2724            0.0000000000
     43727      3416  MEOH      DO1           -20.5150472920      -19.6013727721      -12.5444141369  MEOH      2724            0.0000000000
     43728      3416  MEOH      HO1           -19.9572735059      -19.7828716842      -11.7818329128  MEOH      2724            0.0000000000
     43729      3416  MEOH      HO2           -20.0879761245      -19.6203420623      -13.4380893862  MEOH      2724            0.0000000000
     43730      3416  MEOH      H1A           -22.1580551843      -20.4381019017      -13.5118580430  MEOH      2724            0.0000000000
     43731      3416  MEOH      H1B           -22.1393680821      -20.5883724070      -11.7057588857  MEOH      2724            0.0000000000
     43732      3416  MEOH      H1C           -21.0419730798      -21.6184121833      -12.7293434847  MEOH      2724            0.0000000000
     43733      3416  MEOH      LP1A          -20.2241958497      -19.7110088286      -12.7441401085  MEOH      2724            0.0000000000
     43734      3416  MEOH      LP1B          -20.6226832913      -19.3345709926      -12.3807513163  MEOH      2724            0.0000000000
     43735      3417  MEOH      C1              8.8854461977        3.4158439395       33.7996513581  MEOH      2725            0.0000000000
     43736      3417  MEOH      DC1             8.8993839278        3.4160411751       33.7960734211  MEOH      2725            0.0000000000
     43737      3417  MEOH      O1              9.1270825254        4.8268880802       33.8258764287  MEOH      2725            0.0000000000
     43738      3417  MEOH      DO1             9.1503794072        4.8336938866       33.8120411865  MEOH      2725            0.0000000000
     43739      3417  MEOH      HO1             8.7219201328        5.1398508119       34.6497682688  MEOH      2725            0.0000000000
     43740      3417  MEOH      HO2            10.0787636387        4.9369790062       33.6739453669  MEOH      2725            0.0000000000
     43741      3417  MEOH      H1A             8.9948764561        3.0098793043       32.7712843344  MEOH      2725            0.0000000000
     43742      3417  MEOH      H1B             7.8652121549        3.2092875318       34.1879527218  MEOH      2725            0.0000000000
     43743      3417  MEOH      H1C             9.6227115280        2.8912084529       34.4442585554  MEOH      2725            0.0000000000
     43744      3417  MEOH      LP1A            9.4333213153        4.8930158566       33.9819050182  MEOH      2725            0.0000000000
     43745      3417  MEOH      LP1B            8.8667457968        4.9959449497       33.6641836255  MEOH      2725            0.0000000000
     43746      3418  MEOH      C1             13.1143063076       32.7773147272      -35.3200648714  MEOH      2726            0.0000000000
     43747      3418  MEOH      DC1            13.1247398772       32.7744875814      -35.3203734700  MEOH      2726            0.0000000000
     43748      3418  MEOH      O1             14.2826889371       31.9885410494      -35.5671077066  MEOH      2726            0.0000000000
     43749      3418  MEOH      DO1            14.2955857620       31.9873545797      -35.5498259453  MEOH      2726            0.0000000000
     43750      3418  MEOH      HO1            14.0015866809       31.2782675485      -36.1649313229  MEOH      2726            0.0000000000
     43751      3418  MEOH      HO2            14.9582997680       32.6142267745      -35.8720132308  MEOH      2726            0.0000000000
     43752      3418  MEOH      H1A            13.3544136127       33.6018395387      -34.6152043761  MEOH      2726            0.0000000000
     43753      3418  MEOH      H1B            12.3170891966       32.1490512884      -34.8683449036  MEOH      2726            0.0000000000
     43754      3418  MEOH      H1C            12.7412922538       33.2161559862      -36.2701174313  MEOH      2726            0.0000000000
     43755      3418  MEOH      LP1A           14.4563858850       32.1151432869      -35.8433345043  MEOH      2726            0.0000000000
     43756      3418  MEOH      LP1B           14.3105644167       31.7369313206      -35.3254147154  MEOH      2726            0.0000000000
     43757      3419  MEOH      C1             -2.0662692325       12.0607703798       -0.6880124643  MEOH      2727            0.0000000000
     43758      3419  MEOH      DC1            -2.0598880113       12.0621317102       -0.6717551387  MEOH      2727            0.0000000000
     43759      3419  MEOH      O1             -1.9274332404       11.1907998076        0.4368807442  MEOH      2727            0.0000000000
     43760      3419  MEOH      DO1            -1.9182466459       11.1975585941        0.4537667910  MEOH      2727            0.0000000000
     43761      3419  MEOH      HO1            -2.7583227241       11.2520705345        0.9336387978  MEOH      2727            0.0000000000
     43762      3419  MEOH      HO2            -1.6766886069       10.3295058204        0.0678281771  MEOH      2727            0.0000000000
     43763      3419  MEOH      H1A            -1.1524160177       12.0050094596       -1.3173645309  MEOH      2727            0.0000000000
     43764      3419  MEOH      H1B            -2.2120140651       13.1083498590       -0.3479291230  MEOH      2727            0.0000000000
     43765      3419  MEOH      H1C            -2.9353579832       11.7549773993       -1.3088960255  MEOH      2727            0.0000000000
     43766      3419  MEOH      LP1A           -2.0344166226       10.8683448833        0.3527535919  MEOH      2727            0.0000000000
     43767      3419  MEOH      LP1B           -1.7866111014       11.3646749839        0.7060211317  MEOH      2727            0.0000000000
     43768      3420  MEOH      C1            -31.2947251659        3.2614749935       -7.6509587818  MEOH      2728            0.0000000000
     43769      3420  MEOH      DC1           -31.2960320254        3.2619846403       -7.6366603013  MEOH      2728            0.0000000000
     43770      3420  MEOH      O1            -31.4928657289        2.9403508495       -6.2694552619  MEOH      2728            0.0000000000
     43771      3420  MEOH      DO1           -31.4950449922        2.9388592708       -6.2605356700  MEOH      2728            0.0000000000
     43772      3420  MEOH      HO1           -30.6878205800        3.2040842685       -5.7969650578  MEOH      2728            0.0000000000
     43773      3420  MEOH      HO2           -32.3538592402        3.3160340964       -6.0276862159  MEOH      2728            0.0000000000
     43774      3420  MEOH      H1A           -32.1500188230        2.8820345925       -8.2499735932  MEOH      2728            0.0000000000
     43775      3420  MEOH      H1B           -30.3641426721        2.7856984344       -8.0277530083  MEOH      2728            0.0000000000
     43776      3420  MEOH      H1C           -31.2221843140        4.3619721058       -7.7849921004  MEOH      2728            0.0000000000
     43777      3420  MEOH      LP1A          -31.6424764938        3.2101259457       -6.1041131423  MEOH      2728            0.0000000000
     43778      3420  MEOH      LP1B          -31.3868365991        2.6128337001       -6.2062861200  MEOH      2728            0.0000000000
     43779      3421  MEOH      C1            -31.1835770618      -13.1634330491       23.4028551290  MEOH      2729            0.0000000000
     43780      3421  MEOH      DC1           -31.1909619915      -13.1669538702       23.4034937861  MEOH      2729            0.0000000000
     43781      3421  MEOH      O1            -31.3311750595      -14.5526552868       23.0909214210  MEOH      2729            0.0000000000
     43782      3421  MEOH      DO1           -31.3433111419      -14.5530692952       23.0928573841  MEOH      2729            0.0000000000
     43783      3421  MEOH      HO1           -30.6706265780      -15.0411871601       23.6065882843  MEOH      2729            0.0000000000
     43784      3421  MEOH      HO2           -32.2768670267      -14.7537770296       23.1691310601  MEOH      2729            0.0000000000
     43785      3421  MEOH      H1A           -31.8144184282      -12.5586333403       22.7168686252  MEOH      2729            0.0000000000
     43786      3421  MEOH      H1B           -30.1233513651      -12.8529787862       23.2851239831  MEOH      2729            0.0000000000
     43787      3421  MEOH      H1C           -31.5016008841      -12.9691552089       24.4494868555  MEOH      2729            0.0000000000
     43788      3421  MEOH      LP1A          -31.5636892022      -14.6998559307       23.3071831695  MEOH      2729            0.0000000000
     43789      3421  MEOH      LP1B          -31.1319256641      -14.6352796949       22.8152896274  MEOH      2729            0.0000000000
     43790      3422  MEOH      C1             -7.1378218618       34.9579649224        1.6622179878  MEOH      2730            0.0000000000
     43791      3422  MEOH      DC1            -7.1438214277       34.9571416981        1.6676257677  MEOH      2730            0.0000000000
     43792      3422  MEOH      O1             -7.9602323751       33.8019254062        1.7852244594  MEOH      2730            0.0000000000
     43793      3422  MEOH      DO1            -7.9671556842       33.8006824700        1.7961964566  MEOH      2730            0.0000000000
     43794      3422  MEOH      HO1            -7.6893601928       33.3492519495        2.5992361319  MEOH      2730            0.0000000000
     43795      3422  MEOH      HO2            -8.8708667073       34.1091116313        1.6537644425  MEOH      2730            0.0000000000
     43796      3422  MEOH      H1A            -7.3049752832       35.4119068972        0.6620592908  MEOH      2730            0.0000000000
     43797      3422  MEOH      H1B            -6.0621342771       34.6952820336        1.7528541873  MEOH      2730            0.0000000000
     43798      3422  MEOH      H1C            -7.4071565372       35.6883752523        2.4548595099  MEOH      2730            0.0000000000
     43799      3422  MEOH      LP1A           -8.2522810844       33.8809533751        1.9611850560  MEOH      2730            0.0000000000
     43800      3422  MEOH      LP1B           -7.8118082175       33.5313151529        1.6201779197  MEOH      2730            0.0000000000
     43801      3423  MEOH      C1             34.0051405465      -24.1659424421       14.5688162111  MEOH      2731            0.0000000000
     43802      3423  MEOH      DC1            34.0029485413      -24.1487393866       14.5689753116  MEOH      2731            0.0000000000
     43803      3423  MEOH      O1             33.1208336678      -23.1798631603       15.1013751024  MEOH      2731            0.0000000000
     43804      3423  MEOH      DO1            33.1277790013      -23.1663786372       15.1044263050  MEOH      2731            0.0000000000
     43805      3423  MEOH      HO1            32.6627025600      -23.5847702287       15.8544130527  MEOH      2731            0.0000000000
     43806      3423  MEOH      HO2            33.6519843498      -22.3769572878       15.2202073919  MEOH      2731            0.0000000000
     43807      3423  MEOH      H1A            34.5231371094      -23.7797609398       13.6650106965  MEOH      2731            0.0000000000
     43808      3423  MEOH      H1B            33.4482480090      -25.0872037876       14.2940995627  MEOH      2731            0.0000000000
     43809      3423  MEOH      H1C            34.7651852614      -24.4306076972       15.3347178595  MEOH      2731            0.0000000000
     43810      3423  MEOH      LP1A           33.2864799612      -22.9886250981       15.3432207331  MEOH      2731            0.0000000000
     43811      3423  MEOH      LP1B           32.8103693581      -23.1982779207       14.9408359825  MEOH      2731            0.0000000000
     43812      3424  MEOH      C1            -35.8160893507        9.7423975103       12.1503879279  MEOH      2732            0.0000000000
     43813      3424  MEOH      DC1           -35.8466989358        9.7340522326       12.1578311610  MEOH      2732            0.0000000000
     43814      3424  MEOH      O1            -34.7330796175       10.5907692352       11.8509367438  MEOH      2732            0.0000000000
     43815      3424  MEOH      DO1           -34.7553549366       10.5861281400       11.8620364202  MEOH      2732            0.0000000000
     43816      3424  MEOH      HO1           -34.5475818734       11.1810528853       12.5979680686  MEOH      2732            0.0000000000
     43817      3424  MEOH      HO2           -34.0352378004       10.0080860294       11.5127103701  MEOH      2732            0.0000000000
     43818      3424  MEOH      H1A           -36.0753527352        9.1364863035       11.2559746516  MEOH      2732            0.0000000000
     43819      3424  MEOH      H1B           -36.6810945191       10.3819905692       12.4278906814  MEOH      2732            0.0000000000
     43820      3424  MEOH      H1C           -35.5379147790        9.0618405021       12.9833237395  MEOH      2732            0.0000000000
     43821      3424  MEOH      LP1A          -34.4321840981       10.4382277688       11.9441729352  MEOH      2732            0.0000000000
     43822      3424  MEOH      LP1B          -34.8488593714       10.8826986483       11.6964302185  MEOH      2732            0.0000000000
     43823      3425  MEOH      C1            -29.3365454364      -29.0250936440        1.6073297413  MEOH      2733            0.0000000000
     43824      3425  MEOH      DC1           -29.3279853355      -29.0193664025        1.6118187628  MEOH      2733            0.0000000000
     43825      3425  MEOH      O1            -29.0224412499      -27.6445906766        1.7955287451  MEOH      2733            0.0000000000
     43826      3425  MEOH      DO1           -29.0081909228      -27.6429559360        1.7923086794  MEOH      2733            0.0000000000
     43827      3425  MEOH      HO1           -28.3913657281      -27.3998259683        1.1007381832  MEOH      2733            0.0000000000
     43828      3425  MEOH      HO2           -29.8785960007      -27.1910334174        1.8422711796  MEOH      2733            0.0000000000
     43829      3425  MEOH      H1A           -30.0381624469      -29.3732720855        2.3952550832  MEOH      2733            0.0000000000
     43830      3425  MEOH      H1B           -28.4113942648      -29.6349616931        1.6878112437  MEOH      2733            0.0000000000
     43831      3425  MEOH      H1C           -29.8189391684      -29.1774872322        0.6181919936  MEOH      2733            0.0000000000
     43832      3425  MEOH      LP1A          -29.2491583355      -27.4450478957        1.6186614456  MEOH      2733            0.0000000000
     43833      3425  MEOH      LP1B          -28.7501093150      -27.6123554494        2.0130056574  MEOH      2733            0.0000000000
     43834      3426  MEOH      C1            -17.9036296089      -24.5323589169      -12.7552310246  MEOH      2734            0.0000000000
     43835      3426  MEOH      DC1           -17.8950214024      -24.5371025629      -12.7504675475  MEOH      2734            0.0000000000
     43836      3426  MEOH      O1            -19.0659628529      -24.5572151268      -13.5778196828  MEOH      2734            0.0000000000
     43837      3426  MEOH      DO1           -19.0659591215      -24.5723318860      -13.5637774935  MEOH      2734            0.0000000000
     43838      3426  MEOH      HO1           -19.7819406068      -24.9703509118      -13.0702818225  MEOH      2734            0.0000000000
     43839      3426  MEOH      HO2           -19.1698335075      -23.6487199548      -13.9014667275  MEOH      2734            0.0000000000
     43840      3426  MEOH      H1A           -17.0559983256      -24.0864513191      -13.3182662121  MEOH      2734            0.0000000000
     43841      3426  MEOH      H1B           -17.6377145355      -25.5705076189      -12.4622166115  MEOH      2734            0.0000000000
     43842      3426  MEOH      H1C           -18.0975736372      -23.9251287420      -11.8452979336  MEOH      2734            0.0000000000
     43843      3426  MEOH      LP1A          -19.2488975926      -24.2618431207      -13.5355082298  MEOH      2734            0.0000000000
     43844      3426  MEOH      LP1B          -19.0725477760      -24.8516917564      -13.7668703464  MEOH      2734            0.0000000000
     43845      3427  MEOH      C1             20.7581389425       -5.0847473663      -10.5389291907  MEOH      2735            0.0000000000
     43846      3427  MEOH      DC1            20.7603073648       -5.1063547511      -10.5448897243  MEOH      2735            0.0000000000
     43847      3427  MEOH      O1             21.1217728461       -5.9329178283      -11.6297965077  MEOH      2735            0.0000000000
     43848      3427  MEOH      DO1            21.1232761282       -5.9662785174      -11.6271294702  MEOH      2735            0.0000000000
     43849      3427  MEOH      HO1            20.3214587255       -5.9871780350      -12.1751891543  MEOH      2735            0.0000000000
     43850      3427  MEOH      HO2            21.8977839756       -5.5053410454      -12.0246190269  MEOH      2735            0.0000000000
     43851      3427  MEOH      H1A            21.6608282101       -4.7784008496       -9.9682936679  MEOH      2735            0.0000000000
     43852      3427  MEOH      H1B            20.0624049872       -5.6129184493       -9.8524085639  MEOH      2735            0.0000000000
     43853      3427  MEOH      H1C            20.2708717514       -4.1639177545      -10.9248883989  MEOH      2735            0.0000000000
     43854      3427  MEOH      LP1A           21.2564287581       -5.7418280979      -11.8902816326  MEOH      2735            0.0000000000
     43855      3427  MEOH      LP1B           21.0585976332       -6.2672391208      -11.5477101760  MEOH      2735            0.0000000000
     43856      3428  MEOH      C1             29.2808096910       24.7558001068        0.8298037530  MEOH      2736            0.0000000000
     43857      3428  MEOH      DC1            29.2801908175       24.7632908424        0.8389982363  MEOH      2736            0.0000000000
     43858      3428  MEOH      O1             30.6057927619       25.2934192733        0.7732576247  MEOH      2736            0.0000000000
     43859      3428  MEOH      DO1            30.6106167419       25.3017858424        0.7799137458  MEOH      2736            0.0000000000
     43860      3428  MEOH      HO1            30.7094448069       25.8907340611        1.5304704732  MEOH      2736            0.0000000000
     43861      3428  MEOH      HO2            31.1951908328       24.5300854031        0.6691840101  MEOH      2736            0.0000000000
     43862      3428  MEOH      H1A            29.1242684808       24.0926799450       -0.0477425424  MEOH      2736            0.0000000000
     43863      3428  MEOH      H1B            28.5323886756       25.5764829586        0.8039843439  MEOH      2736            0.0000000000
     43864      3428  MEOH      H1C            29.1359847950       24.1418573397        1.7443643190  MEOH      2736            0.0000000000
     43865      3428  MEOH      LP1A           30.8271207494       25.0847948069        0.9464331252  MEOH      2736            0.0000000000
     43866      3428  MEOH      LP1B           30.6081890845       25.5859336202        0.5810868296  MEOH      2736            0.0000000000
     43867      3429  MEOH      C1             29.0180397077      -14.9802495083      -28.4170852174  MEOH      2737            0.0000000000
     43868      3429  MEOH      DC1            29.0163095998      -14.9829338733      -28.4144830843  MEOH      2737            0.0000000000
     43869      3429  MEOH      O1             29.8299670644      -14.0498585065      -29.1381997343  MEOH      2737            0.0000000000
     43870      3429  MEOH      DO1            29.8240763280      -14.0539836497      -29.1394188538  MEOH      2737            0.0000000000
     43871      3429  MEOH      HO1            30.1840546373      -13.4026569984      -28.5083964328  MEOH      2737            0.0000000000
     43872      3429  MEOH      HO2            30.4294688059      -14.5842086671      -29.6822287492  MEOH      2737            0.0000000000
     43873      3429  MEOH      H1A            28.5076421949      -15.6560627120      -29.1361762369  MEOH      2737            0.0000000000
     43874      3429  MEOH      H1B            28.2452563164      -14.4393989772      -27.8300523945  MEOH      2737            0.0000000000
     43875      3429  MEOH      H1C            29.6464763519      -15.5891001724      -27.7324763852  MEOH      2737            0.0000000000
     43876      3429  MEOH      LP1A           30.1596571372      -14.1662151042      -29.1544969140  MEOH      2737            0.0000000000
     43877      3429  MEOH      LP1B           29.6339548027      -13.7833296856      -29.2523994758  MEOH      2737            0.0000000000
     43878      3430  MEOH      C1             10.7847605092      -19.4393063782       -6.2213285699  MEOH      2738            0.0000000000
     43879      3430  MEOH      DC1            10.7954134196      -19.4568428199       -6.2248580059  MEOH      2738            0.0000000000
     43880      3430  MEOH      O1             10.0125183602      -18.2813496659       -6.5074809495  MEOH      2738            0.0000000000
     43881      3430  MEOH      DO1            10.0104205817      -18.2907512808       -6.4967171120  MEOH      2738            0.0000000000
     43882      3430  MEOH      HO1             9.1290280661      -18.5697732920       -6.7852519201  MEOH      2738            0.0000000000
     43883      3430  MEOH      HO2            10.1545955942      -17.6733840033       -5.7651253652  MEOH      2738            0.0000000000
     43884      3430  MEOH      H1A            11.8546453216      -19.1549568962       -6.1274517338  MEOH      2738            0.0000000000
     43885      3430  MEOH      H1B            10.6713390859      -20.1653528569       -7.0545830891  MEOH      2738            0.0000000000
     43886      3430  MEOH      H1C            10.4518448491      -19.8974793996       -5.2655222891  MEOH      2738            0.0000000000
     43887      3430  MEOH      LP1A            9.8505037658      -18.1708620131       -6.2175779489  MEOH      2738            0.0000000000
     43888      3430  MEOH      LP1B           10.0533813673      -18.1900898642       -6.8428939237  MEOH      2738            0.0000000000
     43889      3431  MEOH      C1             31.0123615290      -13.7187630314        7.1557345894  MEOH      2739            0.0000000000
     43890      3431  MEOH      DC1            31.0150871791      -13.7083408018        7.1564937050  MEOH      2739            0.0000000000
     43891      3431  MEOH      O1             29.6645715702      -14.1352584584        7.3757529037  MEOH      2739            0.0000000000
     43892      3431  MEOH      DO1            29.6665771676      -14.1326428222        7.3716633599  MEOH      2739            0.0000000000
     43893      3431  MEOH      HO1            29.5088868849      -14.1552453565        8.3329690771  MEOH      2739            0.0000000000
     43894      3431  MEOH      HO2            29.1130016421      -13.5787349119        6.8039555994  MEOH      2739            0.0000000000
     43895      3431  MEOH      H1A            31.2419739524      -13.7608227992        6.0695347405  MEOH      2739            0.0000000000
     43896      3431  MEOH      H1B            31.7144545013      -14.3837026919        7.7027644845  MEOH      2739            0.0000000000
     43897      3431  MEOH      H1C            31.1417183756      -12.6729295472        7.5076154376  MEOH      2739            0.0000000000
     43898      3431  MEOH      LP1A           29.4523132800      -13.8569862139        7.3790659335  MEOH      2739            0.0000000000
     43899      3431  MEOH      LP1B           29.6492300918      -14.4842138477        7.3979964505  MEOH      2739            0.0000000000
     43900      3432  MEOH      C1            -26.4304863819      -11.8035591284        3.7001140746  MEOH      2740            0.0000000000
     43901      3432  MEOH      DC1           -26.4197054336      -11.7921449231        3.6946903918  MEOH      2740            0.0000000000
     43902      3432  MEOH      O1            -27.8342090368      -12.0451090405        3.6180220759  MEOH      2740            0.0000000000
     43903      3432  MEOH      DO1           -27.8229102941      -12.0430053803        3.6123018856  MEOH      2740            0.0000000000
     43904      3432  MEOH      HO1           -28.1465433865      -11.8077095667        2.7308982151  MEOH      2740            0.0000000000
     43905      3432  MEOH      HO2           -27.9709608062      -12.9392969898        3.9682032645  MEOH      2740            0.0000000000
     43906      3432  MEOH      H1A           -26.1109843418      -11.9278149925        4.7569016259  MEOH      2740            0.0000000000
     43907      3432  MEOH      H1B           -26.2031765626      -10.7657328059        3.3752021302  MEOH      2740            0.0000000000
     43908      3432  MEOH      H1C           -25.8737337157      -12.5351999037        3.0763759529  MEOH      2740            0.0000000000
     43909      3432  MEOH      LP1A          -27.8931896280      -12.3739777017        3.5137786420  MEOH      2740            0.0000000000
     43910      3432  MEOH      LP1B          -28.0107924804      -11.7604232631        3.7193744098  MEOH      2740            0.0000000000
     43911      3433  MEOH      C1            -20.0462491474       -8.4588439293        2.1781649796  MEOH      2741            0.0000000000
     43912      3433  MEOH      DC1           -20.0443210989       -8.4740307010        2.1675310938  MEOH      2741            0.0000000000
     43913      3433  MEOH      O1            -19.9292058217       -9.8496348781        1.8869073517  MEOH      2741            0.0000000000
     43914      3433  MEOH      DO1           -19.9191400946       -9.8551342669        1.8725148465  MEOH      2741            0.0000000000
     43915      3433  MEOH      HO1           -19.1774382733      -10.1746061576        2.4066565419  MEOH      2741            0.0000000000
     43916      3433  MEOH      HO2           -20.8061382019      -10.2208497647        2.0715397140  MEOH      2741            0.0000000000
     43917      3433  MEOH      H1A           -20.9277514166       -8.0375350377        1.6492287175  MEOH      2741            0.0000000000
     43918      3433  MEOH      H1B           -19.1400249480       -7.9120504576        1.8403845771  MEOH      2741            0.0000000000
     43919      3433  MEOH      H1C           -20.1697474689       -8.3096126814        3.2721481601  MEOH      2741            0.0000000000
     43920      3433  MEOH      LP1A          -20.1264189442      -10.0353598846        2.1085223473  MEOH      2741            0.0000000000
     43921      3433  MEOH      LP1B          -19.7213336243       -9.8967207027        1.6092887740  MEOH      2741            0.0000000000
     43922      3434  MEOH      C1             -5.5328948714       24.5613499036      -18.9876683918  MEOH      2742            0.0000000000
     43923      3434  MEOH      DC1            -5.5207737477       24.5592962993      -18.9988536753  MEOH      2742            0.0000000000
     43924      3434  MEOH      O1             -4.2287612201       25.1152348962      -19.1300358989  MEOH      2742            0.0000000000
     43925      3434  MEOH      DO1            -4.2202029946       25.1159894872      -19.1356453997  MEOH      2742            0.0000000000
     43926      3434  MEOH      HO1            -4.2678463528       25.9919275637      -18.7167777234  MEOH      2742            0.0000000000
     43927      3434  MEOH      HO2            -3.6104471673       24.4465603219      -18.7961765786  MEOH      2742            0.0000000000
     43928      3434  MEOH      H1A            -5.5863111488       23.5619542027      -19.4700333329  MEOH      2742            0.0000000000
     43929      3434  MEOH      H1B            -6.2635944657       25.2387844008      -19.4790761710  MEOH      2742            0.0000000000
     43930      3434  MEOH      H1C            -5.7987213929       24.4636282223      -17.9133743290  MEOH      2742            0.0000000000
     43931      3434  MEOH      LP1A           -4.0298978011       25.0250785671      -18.8564939882  MEOH      2742            0.0000000000
     43932      3434  MEOH      LP1B           -4.2049128947       25.2889937497      -19.4329205605  MEOH      2742            0.0000000000
     43933      3435  MEOH      C1             25.0656208110       -9.9676137622       11.9532266083  MEOH      2743            0.0000000000
     43934      3435  MEOH      DC1            25.0587759479       -9.9746845585       11.9451411530  MEOH      2743            0.0000000000
     43935      3435  MEOH      O1             25.8641629139       -8.9147609014       12.4928125153  MEOH      2743            0.0000000000
     43936      3435  MEOH      DO1            25.8592788378       -8.9220100916       12.4876562234  MEOH      2743            0.0000000000
     43937      3435  MEOH      HO1            26.5656008147       -8.7031762564       11.8571106905  MEOH      2743            0.0000000000
     43938      3435  MEOH      HO2            25.2379048230       -8.2292687831       12.7735283135  MEOH      2743            0.0000000000
     43939      3435  MEOH      H1A            24.3141655761      -10.2796096400       12.7097281630  MEOH      2743            0.0000000000
     43940      3435  MEOH      H1B            25.7011720972      -10.8408142363       11.6926186742  MEOH      2743            0.0000000000
     43941      3435  MEOH      H1C            24.5319747685       -9.6060023270       11.0483619382  MEOH      2743            0.0000000000
     43942      3435  MEOH      LP1A           25.7315807825       -8.6043981746       12.4000927427  MEOH      2743            0.0000000000
     43943      3435  MEOH      LP1B           26.1240842328       -9.0483284527       12.6854277203  MEOH      2743            0.0000000000
     43944      3436  MEOH      C1             -7.6702704723      -15.3696246642       19.2571005750  MEOH      2744            0.0000000000
     43945      3436  MEOH      DC1            -7.6626238970      -15.3829855012       19.2648843416  MEOH      2744            0.0000000000
     43946      3436  MEOH      O1             -7.1065771181      -14.1774530931       18.7129844233  MEOH      2744            0.0000000000
     43947      3436  MEOH      DO1            -7.1054020948      -14.1889256887       18.7130037317  MEOH      2744            0.0000000000
     43948      3436  MEOH      HO1            -7.0090399544      -13.5199218534       19.4194114693  MEOH      2744            0.0000000000
     43949      3436  MEOH      HO2            -6.3533405320      -14.4542136356       18.1680640186  MEOH      2744            0.0000000000
     43950      3436  MEOH      H1A            -7.9717874807      -16.0505275890       18.4326130367  MEOH      2744            0.0000000000
     43951      3436  MEOH      H1B            -8.5661717046      -15.1305522440       19.8690861640  MEOH      2744            0.0000000000
     43952      3436  MEOH      H1C            -6.9044601367      -15.8718825854       19.8860620294  MEOH      2744            0.0000000000
     43953      3436  MEOH      LP1A           -6.7571884723      -14.1934084229       18.7261374338  MEOH      2744            0.0000000000
     43954      3436  MEOH      LP1B           -7.3610083016      -13.9663236241       18.5981405284  MEOH      2744            0.0000000000
     43955      3437  MEOH      C1            -30.9236971863      -31.1153369793       18.7030921477  MEOH      2745            0.0000000000
     43956      3437  MEOH      DC1           -30.9270518359      -31.1381041017       18.7048856069  MEOH      2745            0.0000000000
     43957      3437  MEOH      O1            -30.6463450764      -32.4758932982       19.0498930256  MEOH      2745            0.0000000000
     43958      3437  MEOH      DO1           -30.6543836887      -32.5045675212       19.0436251260  MEOH      2745            0.0000000000
     43959      3437  MEOH      HO1           -31.0471957336      -32.6081484249       19.9232356461  MEOH      2745            0.0000000000
     43960      3437  MEOH      HO2           -30.8691666112      -33.0148176999       18.2747730009  MEOH      2745            0.0000000000
     43961      3437  MEOH      H1A           -30.3445492992      -30.8132681802       17.8043913266  MEOH      2745            0.0000000000
     43962      3437  MEOH      H1B           -30.6237192918      -30.4482436362       19.5393461369  MEOH      2745            0.0000000000
     43963      3437  MEOH      H1C           -32.0057974424      -30.9832898380       18.4887475900  MEOH      2745            0.0000000000
     43964      3437  MEOH      LP1A          -30.9012237504      -32.6841227817       18.9308243744  MEOH      2745            0.0000000000
     43965      3437  MEOH      LP1B          -30.3395281958      -32.4966695513       19.2170209680  MEOH      2745            0.0000000000
     43966      3438  MEOH      C1            -29.1351706049       28.2628153604      -15.3241452543  MEOH      2746            0.0000000000
     43967      3438  MEOH      DC1           -29.1383604649       28.2599683003      -15.3209150984  MEOH      2746            0.0000000000
     43968      3438  MEOH      O1            -29.6693670222       28.9072647988      -14.1645555900  MEOH      2746            0.0000000000
     43969      3438  MEOH      DO1           -29.6720247182       28.9034086976      -14.1571350293  MEOH      2746            0.0000000000
     43970      3438  MEOH      HO1           -30.5990939283       29.1171953000      -14.3446585185  MEOH      2746            0.0000000000
     43971      3438  MEOH      HO2           -29.4105252680       28.3598968685      -13.4067368150  MEOH      2746            0.0000000000
     43972      3438  MEOH      H1A           -28.0309609695       28.1829337703      -15.2310806896  MEOH      2746            0.0000000000
     43973      3438  MEOH      H1B           -29.3717789357       28.8458641007      -16.2397825538  MEOH      2746            0.0000000000
     43974      3438  MEOH      H1C           -29.5655729743       27.2433031210      -15.4224793537  MEOH      2746            0.0000000000
     43975      3438  MEOH      LP1A          -29.7984722101       28.6684371299      -13.9436637725  MEOH      2746            0.0000000000
     43976      3438  MEOH      LP1B          -29.6195083936       29.2530243098      -14.1861073358  MEOH      2746            0.0000000000
     43977      3439  MEOH      C1              0.4735170578       19.6956705759       18.6265342134  MEOH      2747            0.0000000000
     43978      3439  MEOH      DC1             0.4725816027       19.7031851505       18.6285747727  MEOH      2747            0.0000000000
     43979      3439  MEOH      O1              0.0854126553       18.5067860737       17.9366353177  MEOH      2747            0.0000000000
     43980      3439  MEOH      DO1             0.0738589672       18.5155085307       17.9400394959  MEOH      2747            0.0000000000
     43981      3439  MEOH      HO1            -0.7955746359       18.6271704304       17.5489898617  MEOH      2747            0.0000000000
     43982      3439  MEOH      HO2             0.8429632651       18.2525228146       17.3867559951  MEOH      2747            0.0000000000
     43983      3439  MEOH      H1A             1.4453227498       19.5212855413       19.1359501113  MEOH      2747            0.0000000000
     43984      3439  MEOH      H1B            -0.2870758266       19.9528186628       19.3944497854  MEOH      2747            0.0000000000
     43985      3439  MEOH      H1C             0.5892775948       20.5318384001       17.9042158148  MEOH      2747            0.0000000000
     43986      3439  MEOH      LP1A            0.1949614556       18.5199567325       17.6044823498  MEOH      2747            0.0000000000
     43987      3439  MEOH      LP1B           -0.0792335306       18.2894043124       18.1560363280  MEOH      2747            0.0000000000
     43988      3440  MEOH      C1             35.5199563758        1.8315367244       18.3679855472  MEOH      2748            0.0000000000
     43989      3440  MEOH      DC1            35.5305046389        1.8252520092       18.3531276613  MEOH      2748            0.0000000000
     43990      3440  MEOH      O1             34.2860983224        2.4377083684       17.9755044570  MEOH      2748            0.0000000000
     43991      3440  MEOH      DO1            34.2930421606        2.4328645488       17.9612505979  MEOH      2748            0.0000000000
     43992      3440  MEOH      HO1            34.4721879377        3.2825854263       17.5368093327  MEOH      2748            0.0000000000
     43993      3440  MEOH      HO2            33.7511222156        1.7427385887       17.5611162676  MEOH      2748            0.0000000000
     43994      3440  MEOH      H1A            35.3034747967        1.0204749566       19.0957461780  MEOH      2748            0.0000000000
     43995      3440  MEOH      H1B            36.1731603205        2.5793530145       18.8663994350  MEOH      2748            0.0000000000
     43996      3440  MEOH      H1C            36.0433503403        1.4085861164       17.4839648794  MEOH      2748            0.0000000000
     43997      3440  MEOH      LP1A           34.1963846254        2.3298168467       17.6548631120  MEOH      2748            0.0000000000
     43998      3440  MEOH      LP1B           34.1634154253        2.6382168445       18.2348213631  MEOH      2748            0.0000000000
     43999      3441  MEOH      C1             33.5350825965        4.2957393964       14.8194827758  MEOH      2749            0.0000000000
     44000      3441  MEOH      DC1            33.5403139226        4.2936785137       14.8249662014  MEOH      2749            0.0000000000
     44001      3441  MEOH      O1             34.3057030629        5.3834610560       15.3359564663  MEOH      2749            0.0000000000
     44002      3441  MEOH      DO1            34.3078784479        5.3822675475       15.3491227451  MEOH      2749            0.0000000000
     44003      3441  MEOH      HO1            35.2336340599        5.1010318099       15.3271367471  MEOH      2749            0.0000000000
     44004      3441  MEOH      HO2            34.0464700544        6.1531039014       14.8055338631  MEOH      2749            0.0000000000
     44005      3441  MEOH      H1A            32.4625669968        4.5812226492       14.7691776944  MEOH      2749            0.0000000000
     44006      3441  MEOH      H1B            33.6419799125        3.4093283439       15.4806706537  MEOH      2749            0.0000000000
     44007      3441  MEOH      H1C            33.8755413787        4.0325826384       13.7951989579  MEOH      2749            0.0000000000
     44008      3441  MEOH      LP1A           34.3992084630        5.5980850044       15.0757771032  MEOH      2749            0.0000000000
     44009      3441  MEOH      LP1B           34.3316563667        5.3571466593       15.6839995362  MEOH      2749            0.0000000000
     44010      3442  MEOH      C1             36.0612627652      -23.4373675581       17.4446263670  MEOH      2750            0.0000000000
     44011      3442  MEOH      DC1            36.0632176341      -23.4188777431       17.4410856877  MEOH      2750            0.0000000000
     44012      3442  MEOH      O1             35.9765370795      -22.2243520506       16.6720409201  MEOH      2750            0.0000000000
     44013      3442  MEOH      DO1            35.9914490947      -22.2155406113       16.6676093550  MEOH      2750            0.0000000000
     44014      3442  MEOH      HO1            35.3532365740      -22.3832975406       15.9460017950  MEOH      2750            0.0000000000
     44015      3442  MEOH      HO2            35.8300184500      -21.4994894854       17.2997403340  MEOH      2750            0.0000000000
     44016      3442  MEOH      H1A            36.6246802114      -23.2741450275       18.3881517717  MEOH      2750            0.0000000000
     44017      3442  MEOH      H1B            36.5904988436      -24.2155449783       16.8541434488  MEOH      2750            0.0000000000
     44018      3442  MEOH      H1C            35.0578131377      -23.8220324449       17.7264823052  MEOH      2750            0.0000000000
     44019      3442  MEOH      LP1A           35.7256147321      -22.0173890605       16.8012860218  MEOH      2750            0.0000000000
     44020      3442  MEOH      LP1B           36.2209020888      -22.2247042265       16.4214703348  MEOH      2750            0.0000000000
     44021      3443  MEOH      C1             -8.8437761596      -23.2528849761        6.9029227002  MEOH      2751            0.0000000000
     44022      3443  MEOH      DC1            -8.8544418713      -23.2552487448        6.8935653489  MEOH      2751            0.0000000000
     44023      3443  MEOH      O1            -10.2414061694      -23.3229327734        7.1990398729  MEOH      2751            0.0000000000
     44024      3443  MEOH      DO1           -10.2489289878      -23.3375565875        7.1805629255  MEOH      2751            0.0000000000
     44025      3443  MEOH      HO1           -10.7255424869      -22.7658845209        6.5695883097  MEOH      2751            0.0000000000
     44026      3443  MEOH      HO2           -10.4537775506      -24.2534336619        7.3721482056  MEOH      2751            0.0000000000
     44027      3443  MEOH      H1A            -8.2560235328      -23.6633700666        7.7516687403  MEOH      2751            0.0000000000
     44028      3443  MEOH      H1B            -8.5261082507      -22.1987512800        6.7538916622  MEOH      2751            0.0000000000
     44029      3443  MEOH      H1C            -8.6229120806      -23.8311992180        5.9803758465  MEOH      2751            0.0000000000
     44030      3443  MEOH      LP1A          -10.3875642087      -23.5888029712        7.0245381095  MEOH      2751            0.0000000000
     44031      3443  MEOH      LP1B          -10.3269806937      -23.0759521014        7.4318005836  MEOH      2751            0.0000000000
     44032      3444  MEOH      C1             10.3269916706       16.3817598639      -23.7474393971  MEOH      2752            0.0000000000
     44033      3444  MEOH      DC1            10.3300427930       16.3886317716      -23.7554942483  MEOH      2752            0.0000000000
     44034      3444  MEOH      O1             10.9612481973       15.8326149799      -22.6047807058  MEOH      2752            0.0000000000
     44035      3444  MEOH      DO1            10.9527088718       15.8351320833      -22.5974083597  MEOH      2752            0.0000000000
     44036      3444  MEOH      HO1            11.3466430010       14.9737479858      -22.8387002043  MEOH      2752            0.0000000000
     44037      3444  MEOH      HO2            11.5431088372       16.5260107251      -22.2561540613  MEOH      2752            0.0000000000
     44038      3444  MEOH      H1A             9.9742826538       17.4052848211      -23.4978116504  MEOH      2752            0.0000000000
     44039      3444  MEOH      H1B             9.4499999535       15.7545569421      -24.0154375744  MEOH      2752            0.0000000000
     44040      3444  MEOH      H1C            11.0526539786       16.4298897480      -24.5873314916  MEOH      2752            0.0000000000
     44041      3444  MEOH      LP1A           11.2940796355       15.9398057213      -22.5895039691  MEOH      2752            0.0000000000
     44042      3444  MEOH      LP1B           10.7324846790       15.6418970161      -22.4209495034  MEOH      2752            0.0000000000
     44043      3445  MEOH      C1             13.6099559313      -26.1059010950       24.2142348874  MEOH      2753            0.0000000000
     44044      3445  MEOH      DC1            13.6210618945      -26.1071293813       24.1926856783  MEOH      2753            0.0000000000
     44045      3445  MEOH      O1             12.4825494272      -25.8521433387       25.0438134136  MEOH      2753            0.0000000000
     44046      3445  MEOH      DO1            12.4948767950      -25.8660865600       25.0211022720  MEOH      2753            0.0000000000
     44047      3445  MEOH      HO1            12.2121984240      -24.9211990452       25.0098566857  MEOH      2753            0.0000000000
     44048      3445  MEOH      HO2            11.8529106166      -26.5729956461       24.8862478110  MEOH      2753            0.0000000000
     44049      3445  MEOH      H1A            14.0658578760      -27.0806941976       24.4903740272  MEOH      2753            0.0000000000
     44050      3445  MEOH      H1B            14.3742683876      -25.3107855260       24.3481703236  MEOH      2753            0.0000000000
     44051      3445  MEOH      H1C            13.2629315502      -26.1722213459       23.1609083926  MEOH      2753            0.0000000000
     44052      3445  MEOH      LP1A           12.1871187717      -25.9037137740       24.8633661416  MEOH      2753            0.0000000000
     44053      3445  MEOH      LP1B           12.5880419890      -25.7689135858       25.3669915806  MEOH      2753            0.0000000000
     44054      3446  MEOH      C1             -5.8003712731       -6.9561369553      -26.3479283742  MEOH      2754            0.0000000000
     44055      3446  MEOH      DC1            -5.7977792418       -6.9598170357      -26.3463058168  MEOH      2754            0.0000000000
     44056      3446  MEOH      O1             -6.1889605641       -5.8192465728      -27.1170233753  MEOH      2754            0.0000000000
     44057      3446  MEOH      DO1            -6.1825227667       -5.8118910902      -27.1124633796  MEOH      2754            0.0000000000
     44058      3446  MEOH      HO1            -6.8409765746       -5.3223442802      -26.5985031406  MEOH      2754            0.0000000000
     44059      3446  MEOH      HO2            -5.3802391453       -5.4191827812      -27.4731394099  MEOH      2754            0.0000000000
     44060      3446  MEOH      H1A            -5.1537475887       -7.6209211056      -26.9596969942  MEOH      2754            0.0000000000
     44061      3446  MEOH      H1B            -6.7058391221       -7.5265449923      -26.0494595362  MEOH      2754            0.0000000000
     44062      3446  MEOH      H1C            -5.2481783656       -6.6255183648      -25.4423372187  MEOH      2754            0.0000000000
     44063      3446  MEOH      LP1A           -5.9757010749       -5.5501717279      -27.0490592808  MEOH      2754            0.0000000000
     44064      3446  MEOH      LP1B           -6.4603333879       -5.9007800157      -27.3224718803  MEOH      2754            0.0000000000
     44065      3447  MEOH      C1            -11.4791662061       24.1102062538       36.5339225523  MEOH      2755            0.0000000000
     44066      3447  MEOH      DC1           -11.4726981236       24.0876867006       36.5445302113  MEOH      2755            0.0000000000
     44067      3447  MEOH      O1            -11.5567817038       24.8735337330       35.3382639032  MEOH      2755            0.0000000000
     44068      3447  MEOH      DO1           -11.5595191030       24.8580179027       35.3489722948  MEOH      2755            0.0000000000
     44069      3447  MEOH      HO1           -11.9919770724       25.7119645339       35.5585790937  MEOH      2755            0.0000000000
     44070      3447  MEOH      HO2           -10.6529333840       24.8883710832       34.9864996807  MEOH      2755            0.0000000000
     44071      3447  MEOH      H1A           -10.7280828769       23.2993753178       36.4210153869  MEOH      2755            0.0000000000
     44072      3447  MEOH      H1B           -12.4664713037       23.6639993204       36.7797863714  MEOH      2755            0.0000000000
     44073      3447  MEOH      H1C           -11.2038581503       24.7869008648       37.3709475685  MEOH      2755            0.0000000000
     44074      3447  MEOH      LP1A          -11.2680953900       25.0679622104       35.3014158452  MEOH      2755            0.0000000000
     44075      3447  MEOH      LP1B          -11.8533483203       24.7992727338       35.1678715736  MEOH      2755            0.0000000000
     44076      3448  MEOH      C1             -1.6578808911      -12.7170427643      -15.1024990666  MEOH      2756            0.0000000000
     44077      3448  MEOH      DC1            -1.6630313417      -12.7149636281      -15.1082247879  MEOH      2756            0.0000000000
     44078      3448  MEOH      O1             -1.7663144615      -11.4617208071      -15.7712589665  MEOH      2756            0.0000000000
     44079      3448  MEOH      DO1            -1.7658030025      -11.4506636102      -15.7753165939  MEOH      2756            0.0000000000
     44080      3448  MEOH      HO1            -1.8749679712      -10.8039681495      -15.0666627298  MEOH      2756            0.0000000000
     44081      3448  MEOH      HO2            -1.0005057134      -11.4223269763      -16.3653002844  MEOH      2756            0.0000000000
     44082      3448  MEOH      H1A            -1.5682137882      -13.5294554226      -15.8550058673  MEOH      2756            0.0000000000
     44083      3448  MEOH      H1B            -2.5524291515      -12.8937140935      -14.4677615998  MEOH      2756            0.0000000000
     44084      3448  MEOH      H1C            -0.7559832780      -12.7249805511      -14.4537782584  MEOH      2756            0.0000000000
     44085      3448  MEOH      LP1A           -1.4484769407      -11.3222893905      -15.8164052888  MEOH      2756            0.0000000000
     44086      3448  MEOH      LP1B           -2.1012571187      -11.3957631181      -15.8484794280  MEOH      2756            0.0000000000
     44087      3449  MEOH      C1             12.3970137936      -16.7822118826      -11.8087017936  MEOH      2757            0.0000000000
     44088      3449  MEOH      DC1            12.4190326783      -16.7934964850      -11.7908681032  MEOH      2757            0.0000000000
     44089      3449  MEOH      O1             12.7498711433      -18.0410852539      -11.2303693911  MEOH      2757            0.0000000000
     44090      3449  MEOH      DO1            12.7779527678      -18.0597978156      -11.2231587033  MEOH      2757            0.0000000000
     44091      3449  MEOH      HO1            12.3865785206      -18.6970639180      -11.8456826955  MEOH      2757            0.0000000000
     44092      3449  MEOH      HO2            13.6829589449      -17.9858133316      -10.9711548668  MEOH      2757            0.0000000000
     44093      3449  MEOH      H1A            12.5584161742      -15.9483177438      -11.0925378192  MEOH      2757            0.0000000000
     44094      3449  MEOH      H1B            11.3195655548      -16.7981889247      -12.0792032306  MEOH      2757            0.0000000000
     44095      3449  MEOH      H1C            12.9903314060      -16.6035503144      -12.7308597274  MEOH      2757            0.0000000000
     44096      3449  MEOH      LP1A           13.0643578447      -18.1420608280      -11.3461366059  MEOH      2757            0.0000000000
     44097      3449  MEOH      LP1B           12.4996343884      -18.1454932490      -11.0090539215  MEOH      2757            0.0000000000
     44098      3450  MEOH      C1            -35.8573094755      -21.5339846812      -35.8293627244  MEOH      2758            0.0000000000
     44099      3450  MEOH      DC1           -35.8518727721      -21.5247569786      -35.8263297106  MEOH      2758            0.0000000000
     44100      3450  MEOH      O1            -35.2908519815      -20.3020113986      -36.2914068648  MEOH      2758            0.0000000000
     44101      3450  MEOH      DO1           -35.2914152891      -20.2910429340      -36.2884844206  MEOH      2758            0.0000000000
     44102      3450  MEOH      HO1           -35.3446747122      -20.3103410062      -37.2598766542  MEOH      2758            0.0000000000
     44103      3450  MEOH      HO2           -35.7116762326      -19.6000640477      -35.7707564387  MEOH      2758            0.0000000000
     44104      3450  MEOH      H1A           -35.5620787847      -21.7674302995      -34.7840575138  MEOH      2758            0.0000000000
     44105      3450  MEOH      H1B           -35.5343901340      -22.3710906706      -36.4845708299  MEOH      2758            0.0000000000
     44106      3450  MEOH      H1C           -36.9643748248      -21.4440229845      -35.8041792495  MEOH      2758            0.0000000000
     44107      3450  MEOH      LP1A          -35.5387335437      -20.0555709951      -36.3093472836  MEOH      2758            0.0000000000
     44108      3450  MEOH      LP1B          -34.9462438838      -20.3394295748      -36.3398335013  MEOH      2758            0.0000000000
     44109      3451  MEOH      C1            -22.1652705246      -24.8108967855      -28.7182472418  MEOH      2759            0.0000000000
     44110      3451  MEOH      DC1           -22.1557882846      -24.8097132569      -28.7252069465  MEOH      2759            0.0000000000
     44111      3451  MEOH      O1            -21.3139609246      -25.9582271682      -28.6310135262  MEOH      2759            0.0000000000
     44112      3451  MEOH      DO1           -21.3052536895      -25.9568254097      -28.6313614404  MEOH      2759            0.0000000000
     44113      3451  MEOH      HO1           -20.6353240793      -25.8841682144      -29.3201196893  MEOH      2759            0.0000000000
     44114      3451  MEOH      HO2           -21.0709248366      -26.0437001685      -27.6958516011  MEOH      2759            0.0000000000
     44115      3451  MEOH      H1A           -23.0270342243      -24.9283783649      -28.0269568510  MEOH      2759            0.0000000000
     44116      3451  MEOH      H1B           -22.5512049643      -24.6995157160      -29.7540898302  MEOH      2759            0.0000000000
     44117      3451  MEOH      H1C           -21.6073062943      -23.8960423319      -28.4249244724  MEOH      2759            0.0000000000
     44118      3451  MEOH      LP1A          -21.0504045770      -25.8951678042      -28.4095150651  MEOH      2759            0.0000000000
     44119      3451  MEOH      LP1B          -21.4413346811      -26.2171371631      -28.8291083033  MEOH      2759            0.0000000000
     44120      3452  MEOH      C1             17.4735484687       21.4404135568       23.7981574099  MEOH      2760            0.0000000000
     44121      3452  MEOH      DC1            17.4858653847       21.4206871448       23.8006084778  MEOH      2760            0.0000000000
     44122      3452  MEOH      O1             17.0557344392       22.8013423420       23.7466864610  MEOH      2760            0.0000000000
     44123      3452  MEOH      DO1            17.0635405896       22.7869797461       23.7491650722  MEOH      2760            0.0000000000
     44124      3452  MEOH      HO1            17.7193661799       23.3146630904       23.2598654235  MEOH      2760            0.0000000000
     44125      3452  MEOH      HO2            16.1352751605       22.7834686200       23.4411782838  MEOH      2760            0.0000000000
     44126      3452  MEOH      H1A            16.7467232235       20.8475279473       24.3935839111  MEOH      2760            0.0000000000
     44127      3452  MEOH      H1B            18.4795479280       21.3809446533       24.2658640888  MEOH      2760            0.0000000000
     44128      3452  MEOH      H1C            17.5122858698       21.0318392440       22.7657391579  MEOH      2760            0.0000000000
     44129      3452  MEOH      LP1A           16.8559449778       22.8546287426       23.4642953658  MEOH      2760            0.0000000000
     44130      3452  MEOH      LP1B           17.1758565899       22.9741017509       24.0263735281  MEOH      2760            0.0000000000
     44131      3453  MEOH      C1            -23.9327657255       -0.5495876558      -32.4747289877  MEOH      2761            0.0000000000
     44132      3453  MEOH      DC1           -23.9468515192       -0.5618801595      -32.4768782794  MEOH      2761            0.0000000000
     44133      3453  MEOH      O1            -25.1662787217       -1.0481096399      -32.9910476350  MEOH      2761            0.0000000000
     44134      3453  MEOH      DO1           -25.1740879660       -1.0490674311      -32.9913650806  MEOH      2761            0.0000000000
     44135      3453  MEOH      HO1           -25.4947916656       -1.7147991986      -32.3677465216  MEOH      2761            0.0000000000
     44136      3453  MEOH      HO2           -25.6979083811       -0.2648708596      -33.2027240834  MEOH      2761            0.0000000000
     44137      3453  MEOH      H1A           -23.4658615098        0.1476367613      -33.2028770274  MEOH      2761            0.0000000000
     44138      3453  MEOH      H1B           -23.2497013596       -1.4011204230      -32.2682440735  MEOH      2761            0.0000000000
     44139      3453  MEOH      H1C           -24.0958008782        0.0002917825      -31.5232180092  MEOH      2761            0.0000000000
     44140      3453  MEOH      LP1A          -25.4323857085       -0.8526969401      -32.8748540538  MEOH      2761            0.0000000000
     44141      3453  MEOH      LP1B          -25.1061549331       -1.3201452619      -33.2029007692  MEOH      2761            0.0000000000
     44142      3454  MEOH      C1             28.5724271418       27.1994602970      -34.4427399779  MEOH      2762            0.0000000000
     44143      3454  MEOH      DC1            28.5652562866       27.2021592380      -34.4403211808  MEOH      2762            0.0000000000
     44144      3454  MEOH      O1             28.4574268999       27.8804592253      -35.6969962801  MEOH      2762            0.0000000000
     44145      3454  MEOH      DO1            28.4405104197       27.8910738384      -35.6891155443  MEOH      2762            0.0000000000
     44146      3454  MEOH      HO1            29.1829450237       28.5214209678      -35.7577539676  MEOH      2762            0.0000000000
     44147      3454  MEOH      HO2            28.4426106081       27.1726507436      -36.3600857401  MEOH      2762            0.0000000000
     44148      3454  MEOH      H1A            27.8873178927       26.3250353559      -34.4246474236  MEOH      2762            0.0000000000
     44149      3454  MEOH      H1B            28.3216985141       27.8769045651      -33.5986277702  MEOH      2762            0.0000000000
     44150      3454  MEOH      H1C            29.6152003951       26.8459334034      -34.2945385010  MEOH      2762            0.0000000000
     44151      3454  MEOH      LP1A           28.6329922515       27.7060049605      -35.9444685348  MEOH      2762            0.0000000000
     44152      3454  MEOH      LP1B           28.2533043718       28.1625802233      -35.6617580058  MEOH      2762            0.0000000000
     44153      3455  MEOH      C1            -28.2549334431       20.1677934368      -29.5752969178  MEOH      2763            0.0000000000
     44154      3455  MEOH      DC1           -28.2529927837       20.1644869254      -29.5828836898  MEOH      2763            0.0000000000
     44155      3455  MEOH      O1            -27.0882452652       20.0998382547      -28.7756642810  MEOH      2763            0.0000000000
     44156      3455  MEOH      DO1           -27.0935209735       20.1040388298      -28.7806891149  MEOH      2763            0.0000000000
     44157      3455  MEOH      HO1           -27.2494732814       20.6111689143      -27.9673039133  MEOH      2763            0.0000000000
     44158      3455  MEOH      HO2           -26.8633682288       19.1583030557      -28.7136821262  MEOH      2763            0.0000000000
     44159      3455  MEOH      H1A           -28.0828908827       19.5874393787      -30.5069146104  MEOH      2763            0.0000000000
     44160      3455  MEOH      H1B           -28.4950385803       21.2166905325      -29.8518568674  MEOH      2763            0.0000000000
     44161      3455  MEOH      H1C           -29.0970087887       19.7192391385      -29.0060613288  MEOH      2763            0.0000000000
     44162      3455  MEOH      LP1A          -27.1038094455       19.8210253116      -28.5646640462  MEOH      2763            0.0000000000
     44163      3455  MEOH      LP1B          -26.8703549733       20.3606217301      -28.8594246514  MEOH      2763            0.0000000000
     44164      3456  MEOH      C1            -30.4524914122        9.3950954578       24.3640803361  MEOH      2764            0.0000000000
     44165      3456  MEOH      DC1           -30.4538867601        9.4056840720       24.3591481670  MEOH      2764            0.0000000000
     44166      3456  MEOH      O1            -31.4405905987       10.3252764384       23.9298880614  MEOH      2764            0.0000000000
     44167      3456  MEOH      DO1           -31.4431434158       10.3337157139       23.9325287637  MEOH      2764            0.0000000000
     44168      3456  MEOH      HO1           -31.0386185581       10.8740750393       23.2384124116  MEOH      2764            0.0000000000
     44169      3456  MEOH      HO2           -32.2183247142        9.7871556526       23.7143522958  MEOH      2764            0.0000000000
     44170      3456  MEOH      H1A           -30.8873174074        8.6967000155       25.1107336431  MEOH      2764            0.0000000000
     44171      3456  MEOH      H1B           -29.5990376413        9.9295321006       24.8334577277  MEOH      2764            0.0000000000
     44172      3456  MEOH      H1C           -30.0996715361        8.7980371052       23.4961169379  MEOH      2764            0.0000000000
     44173      3456  MEOH      LP1A          -31.6283160696       10.1873036895       23.6686933674  MEOH      2764            0.0000000000
     44174      3456  MEOH      LP1B          -31.4263792253       10.6150922695       24.1256042357  MEOH      2764            0.0000000000
     44175      3457  MEOH      C1              8.6813732352       17.3736598806       16.7710997678  MEOH      2765            0.0000000000
     44176      3457  MEOH      DC1             8.6918140991       17.3680030262       16.7679350932  MEOH      2765            0.0000000000
     44177      3457  MEOH      O1              9.8013122522       16.6390294791       16.2701296867  MEOH      2765            0.0000000000
     44178      3457  MEOH      DO1             9.8137923846       16.6338435115       16.2721742471  MEOH      2765            0.0000000000
     44179      3457  MEOH      HO1            10.4625207775       16.6353196351       16.9798405600  MEOH      2765            0.0000000000
     44180      3457  MEOH      HO2             9.4392201963       15.8017360833       15.9403887087  MEOH      2765            0.0000000000
     44181      3457  MEOH      H1A             7.9047757255       17.4481976800       15.9801121413  MEOH      2765            0.0000000000
     44182      3457  MEOH      H1B             8.9886364603       18.4006207852       17.0630956768  MEOH      2765            0.0000000000
     44183      3457  MEOH      H1C             8.2443997137       16.8516511344       17.6490986359  MEOH      2765            0.0000000000
     44184      3457  MEOH      LP1A            9.7631045384       16.2986558723       16.3421434243  MEOH      2765            0.0000000000
     44185      3457  MEOH      LP1B           10.0214891577       16.8547389079       16.1043238586  MEOH      2765            0.0000000000
     44186      3458  MEOH      C1             26.6737459869       -3.8750631025       -2.8478028192  MEOH      2766            0.0000000000
     44187      3458  MEOH      DC1            26.6614090979       -3.8804119819       -2.8444596589  MEOH      2766            0.0000000000
     44188      3458  MEOH      O1             26.6695122799       -4.7265651998       -1.6982849520  MEOH      2766            0.0000000000
     44189      3458  MEOH      DO1            26.6455507106       -4.7236346134       -1.6928133724  MEOH      2766            0.0000000000
     44190      3458  MEOH      HO1            27.2685804090       -4.3403152453       -1.0403880376  MEOH      2766            0.0000000000
     44191      3458  MEOH      HO2            25.7481487441       -4.9634774327       -1.5089127557  MEOH      2766            0.0000000000
     44192      3458  MEOH      H1A            26.2292009566       -4.4122858644       -3.7127261800  MEOH      2766            0.0000000000
     44193      3458  MEOH      H1B            27.7168981776       -3.5998509343       -3.1131568673  MEOH      2766            0.0000000000
     44194      3458  MEOH      H1C            26.1001048921       -2.9464670539       -2.6405197437  MEOH      2766            0.0000000000
     44195      3458  MEOH      LP1A           26.4154478770       -4.6291981508       -1.4781237908  MEOH      2766            0.0000000000
     44196      3458  MEOH      LP1B           26.9154096224       -4.9734376961       -1.7312768836  MEOH      2766            0.0000000000
     44197      3459  MEOH      C1              6.4143250815      -33.3178283619        4.8777288406  MEOH      2767            0.0000000000
     44198      3459  MEOH      DC1             6.4154735699      -33.2995586833        4.8812311109  MEOH      2767            0.0000000000
     44199      3459  MEOH      O1              5.9590290599      -32.9097700782        6.1608833409  MEOH      2767            0.0000000000
     44200      3459  MEOH      DO1             5.9638276177      -32.8872103611        6.1603328132  MEOH      2767            0.0000000000
     44201      3459  MEOH      HO1             6.5605914283      -32.2292939191        6.5014342385  MEOH      2767            0.0000000000
     44202      3459  MEOH      HO2             5.0045245284      -32.7585266756        6.0775374749  MEOH      2767            0.0000000000
     44203      3459  MEOH      H1A             5.8406242705      -34.2066785328        4.5384151907  MEOH      2767            0.0000000000
     44204      3459  MEOH      H1B             7.4906237214      -33.5908166707        4.9148721142  MEOH      2767            0.0000000000
     44205      3459  MEOH      H1C             6.2641604972      -32.4970193129        4.1442139441  MEOH      2767            0.0000000000
     44206      3459  MEOH      LP1A            5.7314956259      -32.6457648540        6.1287931868  MEOH      2767            0.0000000000
     44207      3459  MEOH      LP1B            6.1011184040      -33.1124298461        6.4083497765  MEOH      2767            0.0000000000
     44208      3460  MEOH      C1            -17.4034568143      -19.1450916440      -26.4196511477  MEOH      2768            0.0000000000
     44209      3460  MEOH      DC1           -17.4173199761      -19.1405258868      -26.4249202523  MEOH      2768            0.0000000000
     44210      3460  MEOH      O1            -16.0645439667      -18.9560868019      -25.9710408428  MEOH      2768            0.0000000000
     44211      3460  MEOH      DO1           -16.0743336249      -18.9538895385      -25.9670202106  MEOH      2768            0.0000000000
     44212      3460  MEOH      HO1           -15.8369988813      -18.0149680216      -26.0295102904  MEOH      2768            0.0000000000
     44213      3460  MEOH      HO2           -15.9809848547      -19.4424042427      -25.1359281429  MEOH      2768            0.0000000000
     44214      3460  MEOH      H1A           -17.6142365137      -20.2341164025      -26.4822450313  MEOH      2768            0.0000000000
     44215      3460  MEOH      H1B           -17.5377135895      -18.6902216651      -27.4243348894  MEOH      2768            0.0000000000
     44216      3460  MEOH      H1C           -18.1002243379      -18.6795867100      -25.6901710753  MEOH      2768            0.0000000000
     44217      3460  MEOH      LP1A          -16.0608028690      -18.9003693715      -25.6255244581  MEOH      2768            0.0000000000
     44218      3460  MEOH      LP1B          -15.8423598998      -18.9913092007      -26.2391707051  MEOH      2768            0.0000000000
     44219      3461  MEOH      C1            -17.1744639623       12.9249087227        5.8024595086  MEOH      2769            0.0000000000
     44220      3461  MEOH      DC1           -17.1819373095       12.9419865484        5.7955230899  MEOH      2769            0.0000000000
     44221      3461  MEOH      O1            -17.8206953837       14.1865048176        5.6793126795  MEOH      2769            0.0000000000
     44222      3461  MEOH      DO1           -17.8414624500       14.1935764837        5.6601524121  MEOH      2769            0.0000000000
     44223      3461  MEOH      HO1           -18.4643831498       14.2194205653        6.4042144751  MEOH      2769            0.0000000000
     44224      3461  MEOH      HO2           -17.1044634741       14.8404189312        5.6617575005  MEOH      2769            0.0000000000
     44225      3461  MEOH      H1A           -16.3709621070       12.8303027893        5.0410427450  MEOH      2769            0.0000000000
     44226      3461  MEOH      H1B           -17.9169383767       12.1107339087        5.6604309310  MEOH      2769            0.0000000000
     44227      3461  MEOH      H1C           -16.7062043511       12.8228273147        6.8047734927  MEOH      2769            0.0000000000
     44228      3461  MEOH      LP1A          -17.6447317225       14.4292686681        5.8598743111  MEOH      2769            0.0000000000
     44229      3461  MEOH      LP1B          -18.0989378989       14.1584407795        5.4688524398  MEOH      2769            0.0000000000
     44230      3462  MEOH      C1            -29.4536086781      -22.5110744065      -24.2444320618  MEOH      2770            0.0000000000
     44231      3462  MEOH      DC1           -29.4525024851      -22.4947566767      -24.2400370228  MEOH      2770            0.0000000000
     44232      3462  MEOH      O1            -28.0955195108      -22.0659757704      -24.2156566069  MEOH      2770            0.0000000000
     44233      3462  MEOH      DO1           -28.0941959237      -22.0536153195      -24.2002968926  MEOH      2770            0.0000000000
     44234      3462  MEOH      HO1           -27.7085589783      -22.3112234285      -25.0706508367  MEOH      2770            0.0000000000
     44235      3462  MEOH      HO2           -28.1182202132      -21.1422835295      -23.9203985466  MEOH      2770            0.0000000000
     44236      3462  MEOH      H1A           -29.8895284449      -22.4575713978      -23.2239261153  MEOH      2770            0.0000000000
     44237      3462  MEOH      H1B           -29.5028652308      -23.5650510663      -24.5923228394  MEOH      2770            0.0000000000
     44238      3462  MEOH      H1C           -30.0530091641      -21.8895660476      -24.9435510912  MEOH      2770            0.0000000000
     44239      3462  MEOH      LP1A          -28.0749122233      -21.7368300032      -24.3328675432  MEOH      2770            0.0000000000
     44240      3462  MEOH      LP1B          -27.8902274786      -22.3164950704      -24.0830094741  MEOH      2770            0.0000000000
     44241      3463  MEOH      C1             23.9560000970      -24.4230991614      -31.6506133169  MEOH      2771            0.0000000000
     44242      3463  MEOH      DC1            23.9507461048      -24.4196862113      -31.6540514368  MEOH      2771            0.0000000000
     44243      3463  MEOH      O1             24.8897933992      -24.6231469712      -30.5872226880  MEOH      2771            0.0000000000
     44244      3463  MEOH      DO1            24.8852347046      -24.6167351075      -30.5820923282  MEOH      2771            0.0000000000
     44245      3463  MEOH      HO1            24.4432223997      -25.1661923813      -29.9189592482  MEOH      2771            0.0000000000
     44246      3463  MEOH      HO2            25.6943560679      -24.9669933149      -31.0059691561  MEOH      2771            0.0000000000
     44247      3463  MEOH      H1A            24.4585305072      -23.8866749293      -32.4836998854  MEOH      2771            0.0000000000
     44248      3463  MEOH      H1B            23.0988005781      -23.8147091513      -31.2909029050  MEOH      2771            0.0000000000
     44249      3463  MEOH      H1C            23.5951434869      -25.4027814401      -32.0305161222  MEOH      2771            0.0000000000
     44250      3463  MEOH      LP1A           25.0818961094      -24.9091569657      -30.6488248939  MEOH      2771            0.0000000000
     44251      3463  MEOH      LP1B           24.8619061647      -24.3644181072      -30.3531678288  MEOH      2771            0.0000000000
     44252      3464  MEOH      C1             10.5459861235      -31.5405266975       27.2884321939  MEOH      2772            0.0000000000
     44253      3464  MEOH      DC1            10.5408441932      -31.5390887740       27.2910218663  MEOH      2772            0.0000000000
     44254      3464  MEOH      O1             10.5664632833      -32.7428930670       26.5211639055  MEOH      2772            0.0000000000
     44255      3464  MEOH      DO1            10.5613404063      -32.7372632956       26.5152141107  MEOH      2772            0.0000000000
     44256      3464  MEOH      HO1            10.1564880555      -32.5670491430       25.6598281823  MEOH      2772            0.0000000000
     44257      3464  MEOH      HO2            11.4636643878      -33.1043100164       26.5940196998  MEOH      2772            0.0000000000
     44258      3464  MEOH      H1A            10.9173145075      -31.7411385476       28.3161437861  MEOH      2772            0.0000000000
     44259      3464  MEOH      H1B             9.5021343240      -31.1656553402       27.3529758849  MEOH      2772            0.0000000000
     44260      3464  MEOH      H1C            11.1955881162      -30.7763711392       26.8105153240  MEOH      2772            0.0000000000
     44261      3464  MEOH      LP1A           10.8642733932      -32.7632239299       26.3384187428  MEOH      2772            0.0000000000
     44262      3464  MEOH      LP1B           10.2772644963      -32.9298138505       26.5838111900  MEOH      2772            0.0000000000
     44263      3465  MEOH      C1              7.7045071118       11.4925181628       22.4633484168  MEOH      2773            0.0000000000
     44264      3465  MEOH      DC1             7.7089199108       11.4994915079       22.4578093550  MEOH      2773            0.0000000000
     44265      3465  MEOH      O1              9.0578484220       11.1356499094       22.1723666893  MEOH      2773            0.0000000000
     44266      3465  MEOH      DO1             9.0630048503       11.1429206045       22.1657088391  MEOH      2773            0.0000000000
     44267      3465  MEOH      HO1             9.4434033403       10.8305866054       23.0085387926  MEOH      2773            0.0000000000
     44268      3465  MEOH      HO2             9.0054189180       10.5206597181       21.4240764971  MEOH      2773            0.0000000000
     44269      3465  MEOH      H1A             7.2060791896       11.8668266327       21.5436833812  MEOH      2773            0.0000000000
     44270      3465  MEOH      H1B             7.6813234289       12.2896227812       23.2369166070  MEOH      2773            0.0000000000
     44271      3465  MEOH      H1C             7.1470012879       10.6035913956       22.8284750510  MEOH      2773            0.0000000000
     44272      3465  MEOH      LP1A            9.0747561904       10.8000301261       22.0745224846  MEOH      2773            0.0000000000
     44273      3465  MEOH      LP1B            9.2660042865       11.4144286861       22.2104918744  MEOH      2773            0.0000000000
     44274      3466  MEOH      C1            -20.5291367984       28.7335543476      -24.8884452515  MEOH      2774            0.0000000000
     44275      3466  MEOH      DC1           -20.5174074600       28.7341778519      -24.8890692980  MEOH      2774            0.0000000000
     44276      3466  MEOH      O1            -19.2567436158       28.8503682688      -24.2544523277  MEOH      2774            0.0000000000
     44277      3466  MEOH      DO1           -19.2511531703       28.8544297378      -24.2515927011  MEOH      2774            0.0000000000
     44278      3466  MEOH      HO1           -18.6678757283       29.3518423035      -24.8398226409  MEOH      2774            0.0000000000
     44279      3466  MEOH      HO2           -19.4303727515       29.1485924960      -23.3479120721  MEOH      2774            0.0000000000
     44280      3466  MEOH      H1A           -21.1811148598       28.0634499748      -24.2882738283  MEOH      2774            0.0000000000
     44281      3466  MEOH      H1B           -20.4088251561       28.3039729651      -25.9059451021  MEOH      2774            0.0000000000
     44282      3466  MEOH      H1C           -21.0148428666       29.7304449662      -24.9564137016  MEOH      2774            0.0000000000
     44283      3466  MEOH      LP1A          -19.2486914464       29.1372748976      -24.0541531791  MEOH      2774            0.0000000000
     44284      3466  MEOH      LP1B          -19.0551670104       28.5771265119      -24.3393393962  MEOH      2774            0.0000000000
     44285      3467  MEOH      C1            -28.4170878353       21.6168682315        9.2144043477  MEOH      2775            0.0000000000
     44286      3467  MEOH      DC1           -28.4113276365       21.6236067198        9.1986432560  MEOH      2775            0.0000000000
     44287      3467  MEOH      O1            -27.1998657548       22.3427909433        9.4158848000  MEOH      2775            0.0000000000
     44288      3467  MEOH      DO1           -27.1826286124       22.3268312168        9.4064111785  MEOH      2775            0.0000000000
     44289      3467  MEOH      HO1           -26.7042676141       22.3290579605        8.5821618916  MEOH      2775            0.0000000000
     44290      3467  MEOH      HO2           -27.4696626476       23.1949617281        9.7926003307  MEOH      2775            0.0000000000
     44291      3467  MEOH      H1A           -29.0260308714       21.6317483390       10.1435372559  MEOH      2775            0.0000000000
     44292      3467  MEOH      H1B           -28.2018367948       20.5562628254        8.9631989267  MEOH      2775            0.0000000000
     44293      3467  MEOH      H1C           -28.9969396973       22.0812566064        8.3883073461  MEOH      2775            0.0000000000
     44294      3467  MEOH      LP1A          -27.2494659587       22.6818279417        9.3445144036  MEOH      2775            0.0000000000
     44295      3467  MEOH      LP1B          -26.9497092490       22.1272063515        9.5318374041  MEOH      2775            0.0000000000
     44296      3468  MEOH      C1            -11.5983372924      -36.5639684250      -34.5373354673  MEOH      2776            0.0000000000
     44297      3468  MEOH      DC1           -11.6139868763      -36.5534467703      -34.5317408017  MEOH      2776            0.0000000000
     44298      3468  MEOH      O1            -12.7749009856      -36.0514247336      -33.9686356609  MEOH      2776            0.0000000000
     44299      3468  MEOH      DO1           -12.7891812036      -36.0416589423      -33.9507561131  MEOH      2776            0.0000000000
     44300      3468  MEOH      HO1           -13.1627474881      -35.5152237465      -34.6778349220  MEOH      2776            0.0000000000
     44301      3468  MEOH      HO2           -13.2249229768      -36.8389990957      -33.6249689136  MEOH      2776            0.0000000000
     44302      3468  MEOH      H1A           -11.2244990539      -37.3664153750      -33.8660345917  MEOH      2776            0.0000000000
     44303      3468  MEOH      H1B           -10.7912630558      -35.8082486157      -34.6461460694  MEOH      2776            0.0000000000
     44304      3468  MEOH      H1C           -11.8461876347      -36.9827178640      -35.5361047676  MEOH      2776            0.0000000000
     44305      3468  MEOH      LP1A          -13.0403920794      -36.2729778020      -34.0227532830  MEOH      2776            0.0000000000
     44306      3468  MEOH      LP1B          -12.7077389491      -35.7479521024      -33.8077207053  MEOH      2776            0.0000000000
     44307      3469  MEOH      C1             17.2124993511       14.7731093998       13.8883944306  MEOH      2777            0.0000000000
     44308      3469  MEOH      DC1            17.2014501811       14.7634551648       13.8937783122  MEOH      2777            0.0000000000
     44309      3469  MEOH      O1             16.8156944528       13.6342708519       14.6521362517  MEOH      2777            0.0000000000
     44310      3469  MEOH      DO1            16.7945892626       13.6379888695       14.6460375671  MEOH      2777            0.0000000000
     44311      3469  MEOH      HO1            16.9042418909       13.8273143911       15.5985999562  MEOH      2777            0.0000000000
     44312      3469  MEOH      HO2            16.0091932813       13.2783545491       14.2474395186  MEOH      2777            0.0000000000
     44313      3469  MEOH      H1A            17.3760856385       14.4525409922       12.8373014649  MEOH      2777            0.0000000000
     44314      3469  MEOH      H1B            18.1602598167       15.2009352104       14.2795928163  MEOH      2777            0.0000000000
     44315      3469  MEOH      H1C            16.4229681490       15.5545360304       13.9066674276  MEOH      2777            0.0000000000
     44316      3469  MEOH      LP1A           16.4721067841       13.6477417934       14.7174512395  MEOH      2777            0.0000000000
     44317      3469  MEOH      LP1B           17.0904718483       13.4240811287       14.7052179167  MEOH      2777            0.0000000000
     44318      3470  MEOH      C1            -26.2871696306       10.9979412716      -14.7849155615  MEOH      2778            0.0000000000
     44319      3470  MEOH      DC1           -26.2930550042       10.9911553061      -14.7811707898  MEOH      2778            0.0000000000
     44320      3470  MEOH      O1            -25.8043594220       11.9084942868      -15.7646955845  MEOH      2778            0.0000000000
     44321      3470  MEOH      DO1           -25.8034457312       11.9036178074      -15.7587179443  MEOH      2778            0.0000000000
     44322      3470  MEOH      HO1           -25.1555322501       12.4862693937      -15.3333033864  MEOH      2778            0.0000000000
     44323      3470  MEOH      HO2           -25.5403522416       11.3653309906      -16.5237567430  MEOH      2778            0.0000000000
     44324      3470  MEOH      H1A           -27.0872656068       10.3705810328      -15.2327844707  MEOH      2778            0.0000000000
     44325      3470  MEOH      H1B           -26.7017313789       11.5623661516      -13.9224283941  MEOH      2778            0.0000000000
     44326      3470  MEOH      H1C           -25.4675320363       10.3360838684      -14.4321266832  MEOH      2778            0.0000000000
     44327      3470  MEOH      LP1A          -25.5273220076       11.7716554741      -15.9290896547  MEOH      2778            0.0000000000
     44328      3470  MEOH      LP1B          -26.0069308237       12.1937903792      -15.7731197691  MEOH      2778            0.0000000000
     44329      3471  MEOH      C1            -22.2893494649      -16.7616694790      -22.1169355888  MEOH      2779            0.0000000000
     44330      3471  MEOH      DC1           -22.2843520979      -16.7651951813      -22.1258499780  MEOH      2779            0.0000000000
     44331      3471  MEOH      O1            -23.1153793109      -15.7122963358      -21.6307565404  MEOH      2779            0.0000000000
     44332      3471  MEOH      DO1           -23.1113507857      -15.7146801369      -21.6330604412  MEOH      2779            0.0000000000
     44333      3471  MEOH      HO1           -23.7094211572      -16.0966627706      -20.9672230232  MEOH      2779            0.0000000000
     44334      3471  MEOH      HO2           -22.5044321501      -15.0011739753      -21.3818618706  MEOH      2779            0.0000000000
     44335      3471  MEOH      H1A           -21.6500475069      -16.3890514378      -22.9456513447  MEOH      2779            0.0000000000
     44336      3471  MEOH      H1B           -22.9193265499      -17.5990921910      -22.4859519495  MEOH      2779            0.0000000000
     44337      3471  MEOH      H1C           -21.6378813305      -17.1159916484      -21.2896713806  MEOH      2779            0.0000000000
     44338      3471  MEOH      LP1A          -22.9616636580      -15.5554275364      -21.3582429117  MEOH      2779            0.0000000000
     44339      3471  MEOH      LP1B          -23.4029593606      -15.6849872070      -21.8283721433  MEOH      2779            0.0000000000
     44340      3472  MEOH      C1            -11.5862072398      -35.7550043696       -9.7025374851  MEOH      2780            0.0000000000
     44341      3472  MEOH      DC1           -11.5876823675      -35.7563453794       -9.6952118379  MEOH      2780            0.0000000000
     44342      3472  MEOH      O1            -11.3836003070      -34.9989850323       -8.5230031533  MEOH      2780            0.0000000000
     44343      3472  MEOH      DO1           -11.3985901452      -34.9915541535       -8.5204436068  MEOH      2780            0.0000000000
     44344      3472  MEOH      HO1           -10.4358705063      -34.7929271299       -8.5072434984  MEOH      2780            0.0000000000
     44345      3472  MEOH      HO2           -12.0572791590      -34.3014096027       -8.5441058645  MEOH      2780            0.0000000000
     44346      3472  MEOH      H1A           -12.5871836529      -36.2351858381       -9.6601939187  MEOH      2780            0.0000000000
     44347      3472  MEOH      H1B           -10.8021414229      -36.5407601785       -9.7489013289  MEOH      2780            0.0000000000
     44348      3472  MEOH      H1C           -11.5231250221      -35.1265877922      -10.6165584038  MEOH      2780            0.0000000000
     44349      3472  MEOH      LP1A          -11.4294951346      -34.6584782502       -8.5897024501  MEOH      2780            0.0000000000
     44350      3472  MEOH      LP1B          -11.3146228222      -35.2124623739       -8.2543592790  MEOH      2780            0.0000000000
     44351      3473  MEOH      C1             32.2416274493       13.4112830880        0.0962186052  MEOH      2781            0.0000000000
     44352      3473  MEOH      DC1            32.2329285251       13.4207727874        0.0955724276  MEOH      2781            0.0000000000
     44353      3473  MEOH      O1             32.1993655971       12.1165288755       -0.5025012192  MEOH      2781            0.0000000000
     44354      3473  MEOH      DO1            32.1901428708       12.1281185435       -0.4946661944  MEOH      2781            0.0000000000
     44355      3473  MEOH      HO1            32.6494058707       11.4833262619        0.0783758787  MEOH      2781            0.0000000000
     44356      3473  MEOH      HO2            31.2866293366       11.9734871650       -0.7980542396  MEOH      2781            0.0000000000
     44357      3473  MEOH      H1A            31.8834132811       14.1692350883       -0.6328303477  MEOH      2781            0.0000000000
     44358      3473  MEOH      H1B            33.2845226080       13.6566798177        0.3902783492  MEOH      2781            0.0000000000
     44359      3473  MEOH      H1C            31.5808310608       13.4354981167        0.9890135239  MEOH      2781            0.0000000000
     44360      3473  MEOH      LP1A           31.9085629113       11.9485188252       -0.4039800493  MEOH      2781            0.0000000000
     44361      3473  MEOH      LP1B           32.4773240006       12.0716522925       -0.7104079729  MEOH      2781            0.0000000000
     44362      3474  MEOH      C1              9.0281558618       -7.1346474331      -35.1014192734  MEOH      2782            0.0000000000
     44363      3474  MEOH      DC1             9.0325829485       -7.1323059135      -35.0974090666  MEOH      2782            0.0000000000
     44364      3474  MEOH      O1              9.2964355788       -8.5202413489      -34.8720074551  MEOH      2782            0.0000000000
     44365      3474  MEOH      DO1             9.3075991430       -8.5209313702      -34.8677840625  MEOH      2782            0.0000000000
     44366      3474  MEOH      HO1             8.4623010079       -8.9972097659      -35.0047502399  MEOH      2782            0.0000000000
     44367      3474  MEOH      HO2            10.0803293895       -8.7337932446      -35.4019188466  MEOH      2782            0.0000000000
     44368      3474  MEOH      H1A             9.9438355697       -6.5341482645      -34.9136629861  MEOH      2782            0.0000000000
     44369      3474  MEOH      H1B             8.2328102374       -6.7788826312      -34.4120878987  MEOH      2782            0.0000000000
     44370      3474  MEOH      H1C             8.6950568395       -6.9867265543      -36.1509360456  MEOH      2782            0.0000000000
     44371      3474  MEOH      LP1A            9.3971384816       -8.6736216134      -35.1700568131  MEOH      2782            0.0000000000
     44372      3474  MEOH      LP1B            9.2516397183       -8.5963719900      -34.5333373259  MEOH      2782            0.0000000000
     44373      3475  MEOH      C1             18.4702169658      -34.6440888248      -14.0396371796  MEOH      2783            0.0000000000
     44374      3475  MEOH      DC1            18.4567616981      -34.6464925439      -14.0417524289  MEOH      2783            0.0000000000
     44375      3475  MEOH      O1             19.1607530452      -35.7785887183      -13.5244078336  MEOH      2783            0.0000000000
     44376      3475  MEOH      DO1            19.1408322567      -35.7888622396      -13.5373970550  MEOH      2783            0.0000000000
     44377      3475  MEOH      HO1            19.3679667493      -36.3553453262      -14.2762816904  MEOH      2783            0.0000000000
     44378      3475  MEOH      HO2            19.9097536861      -35.4046576553      -13.0344347731  MEOH      2783            0.0000000000
     44379      3475  MEOH      H1A            18.4147953620      -33.8571043971      -13.2573936389  MEOH      2783            0.0000000000
     44380      3475  MEOH      H1B            17.4478310460      -34.9265832352      -14.3701594015  MEOH      2783            0.0000000000
     44381      3475  MEOH      H1C            19.0294392386      -34.2402196033      -14.9105453849  MEOH      2783            0.0000000000
     44382      3475  MEOH      LP1A           19.5049797503      -35.7157791235      -13.5164749738  MEOH      2783            0.0000000000
     44383      3475  MEOH      LP1B           18.9317395578      -36.0277563937      -13.4351425428  MEOH      2783            0.0000000000
     44384      3476  MEOH      C1             21.0499739976      -24.5060409600      -12.6096342895  MEOH      2784            0.0000000000
     44385      3476  MEOH      DC1            21.0375194118      -24.4949556812      -12.6016877049  MEOH      2784            0.0000000000
     44386      3476  MEOH      O1             21.1855896536      -23.5001671207      -11.6059556051  MEOH      2784            0.0000000000
     44387      3476  MEOH      DO1            21.1671663673      -23.4834225381      -11.6063225973  MEOH      2784            0.0000000000
     44388      3476  MEOH      HO1            22.1392904867      -23.4007559650      -11.4594218403  MEOH      2784            0.0000000000
     44389      3476  MEOH      HO2            20.6437803614      -22.7495397519      -11.8956127198  MEOH      2784            0.0000000000
     44390      3476  MEOH      H1A            19.9770301139      -24.7685695013      -12.7287610631  MEOH      2784            0.0000000000
     44391      3476  MEOH      H1B            21.6161642822      -25.4177484475      -12.3223382421  MEOH      2784            0.0000000000
     44392      3476  MEOH      H1C            21.4433602628      -24.1346380220      -13.5800095292  MEOH      2784            0.0000000000
     44393      3476  MEOH      LP1A           21.2030040906      -23.1839521728      -11.7549685043  MEOH      2784            0.0000000000
     44394      3476  MEOH      LP1B           21.1795006326      -23.6466098572      -11.2881231827  MEOH      2784            0.0000000000
     44395      3477  MEOH      C1            -20.8575304685      -18.0442961738       24.1478587075  MEOH      2785            0.0000000000
     44396      3477  MEOH      DC1           -20.8578758103      -18.0288284318       24.1556290252  MEOH      2785            0.0000000000
     44397      3477  MEOH      O1            -20.8319471105      -16.9220450135       23.2617914420  MEOH      2785            0.0000000000
     44398      3477  MEOH      DO1           -20.8242756170      -16.9157328867       23.2648162098  MEOH      2785            0.0000000000
     44399      3477  MEOH      HO1           -21.0294968485      -17.2634548095       22.3756123103  MEOH      2785            0.0000000000
     44400      3477  MEOH      HO2           -21.4097067068      -16.2538464844       23.6625464476  MEOH      2785            0.0000000000
     44401      3477  MEOH      H1A           -20.6430479756      -17.7127868146       25.1863286421  MEOH      2785            0.0000000000
     44402      3477  MEOH      H1B           -20.0929580972      -18.7905814770       23.8432140995  MEOH      2785            0.0000000000
     44403      3477  MEOH      H1C           -21.8533614094      -18.5360201605       24.1187166671  MEOH      2785            0.0000000000
     44404      3477  MEOH      LP1A          -21.1494421255      -16.7757386279       23.2447222608  MEOH      2785            0.0000000000
     44405      3477  MEOH      LP1B          -20.5076677973      -16.8735681861       23.1393458447  MEOH      2785            0.0000000000
     44406      3478  MEOH      C1            -18.5557620303      -31.2168689720      -29.3548048180  MEOH      2786            0.0000000000
     44407      3478  MEOH      DC1           -18.5360737204      -31.2345441455      -29.3587131021  MEOH      2786            0.0000000000
     44408      3478  MEOH      O1            -17.8186631545      -32.4408196645      -29.3771127803  MEOH      2786            0.0000000000
     44409      3478  MEOH      DO1           -17.8070072859      -32.4493070151      -29.3913066894  MEOH      2786            0.0000000000
     44410      3478  MEOH      HO1           -17.4150184255      -32.5333324920      -28.4999512730  MEOH      2786            0.0000000000
     44411      3478  MEOH      HO2           -18.4396295800      -33.1150159036      -29.6945401414  MEOH      2786            0.0000000000
     44412      3478  MEOH      H1A           -18.9882534168      -31.0141174309      -30.3578820903  MEOH      2786            0.0000000000
     44413      3478  MEOH      H1B           -17.9091181239      -30.3639166336      -29.0570717718  MEOH      2786            0.0000000000
     44414      3478  MEOH      H1C           -19.4088878999      -31.2881889147      -28.6467012112  MEOH      2786            0.0000000000
     44415      3478  MEOH      LP1A          -18.0245462981      -32.7063505398      -29.2791052017  MEOH      2786            0.0000000000
     44416      3478  MEOH      LP1B          -17.4925189575      -32.3821092061      -29.4897318054  MEOH      2786            0.0000000000
     44417      3479  MEOH      C1             15.5522133134       -4.7889033400      -18.8097702800  MEOH      2787            0.0000000000
     44418      3479  MEOH      DC1            15.5654301111       -4.7864259287      -18.8008993304  MEOH      2787            0.0000000000
     44419      3479  MEOH      O1             14.2932699030       -4.1693812135      -18.5864757250  MEOH      2787            0.0000000000
     44420      3479  MEOH      DO1            14.2954079064       -4.1666092446      -18.5715692174  MEOH      2787            0.0000000000
     44421      3479  MEOH      HO1            13.8008053249       -4.2908151316      -19.4132964086  MEOH      2787            0.0000000000
     44422      3479  MEOH      HO2            13.9632101952       -4.5307091572      -17.7489778394  MEOH      2787            0.0000000000
     44423      3479  MEOH      H1A            16.2127271785       -4.6278697606      -17.9310720258  MEOH      2787            0.0000000000
     44424      3479  MEOH      H1B            16.0260882295       -4.3482501064      -19.7128695503  MEOH      2787            0.0000000000
     44425      3479  MEOH      H1C            15.4078999007       -5.8787891983      -18.9699060189  MEOH      2787            0.0000000000
     44426      3479  MEOH      LP1A           14.0689189847       -4.4002603659      -18.4491386125  MEOH      2787            0.0000000000
     44427      3479  MEOH      LP1B           14.3087614125       -3.8312627631      -18.6755595427  MEOH      2787            0.0000000000
     44428      3480  MEOH      C1            -25.8973382531      -25.0085067427        4.7190957951  MEOH      2788            0.0000000000
     44429      3480  MEOH      DC1           -25.8994620967      -25.0133662916        4.7039945390  MEOH      2788            0.0000000000
     44430      3480  MEOH      O1            -27.1746707387      -24.8432746305        4.0883321484  MEOH      2788            0.0000000000
     44431      3480  MEOH      DO1           -27.1599248836      -24.8331598181        4.0468526369  MEOH      2788            0.0000000000
     44432      3480  MEOH      HO1           -27.5185327990      -25.7332439177        3.9133648593  MEOH      2788            0.0000000000
     44433      3480  MEOH      HO2           -27.6822394771      -24.3178849869        4.7264854985  MEOH      2788            0.0000000000
     44434      3480  MEOH      H1A           -25.5864907644      -24.0549160479        5.1969656793  MEOH      2788            0.0000000000
     44435      3480  MEOH      H1B           -25.1227107678      -25.2998778199        3.9778966623  MEOH      2788            0.0000000000
     44436      3480  MEOH      H1C           -25.9584244044      -25.7938925329        5.5025232929  MEOH      2788            0.0000000000
     44437      3480  MEOH      LP1A          -27.4264784154      -24.8254098910        4.3307651185  MEOH      2788            0.0000000000
     44438      3480  MEOH      LP1B          -27.1349400491      -24.8221522251        3.7412366049  MEOH      2788            0.0000000000
     44439      3481  MEOH      C1            -16.1569173421       26.7327355038       -4.5098738217  MEOH      2789            0.0000000000
     44440      3481  MEOH      DC1           -16.1555987293       26.7137953380       -4.4877184657  MEOH      2789            0.0000000000
     44441      3481  MEOH      O1            -16.5921652518       25.3867670641       -4.2857373576  MEOH      2789            0.0000000000
     44442      3481  MEOH      DO1           -16.5898004851       25.3657300584       -4.2730168545  MEOH      2789            0.0000000000
     44443      3481  MEOH      HO1           -16.7383820449       25.0138037230       -5.1691506219  MEOH      2789            0.0000000000
     44444      3481  MEOH      HO2           -15.9717036416       24.9965042480       -3.6504245796  MEOH      2789            0.0000000000
     44445      3481  MEOH      H1A           -16.2241969756       27.3198169256       -3.5690604206  MEOH      2789            0.0000000000
     44446      3481  MEOH      H1B           -16.7861090740       27.2115687558       -5.2903592356  MEOH      2789            0.0000000000
     44447      3481  MEOH      H1C           -15.1091680991       26.7611601406       -4.8782955436  MEOH      2789            0.0000000000
     44448      3481  MEOH      LP1A          -16.3157538480       25.1726580626       -4.2697977421  MEOH      2789            0.0000000000
     44449      3481  MEOH      LP1B          -16.9404958684       25.3774998222       -4.2528755288  MEOH      2789            0.0000000000
     44450      3482  MEOH      C1             28.8874365791      -16.6495133439      -15.4519142013  MEOH      2790            0.0000000000
     44451      3482  MEOH      DC1            28.8851974164      -16.6492865577      -15.4269851802  MEOH      2790            0.0000000000
     44452      3482  MEOH      O1             28.0018912421      -15.8541731261      -16.2405468978  MEOH      2790            0.0000000000
     44453      3482  MEOH      DO1            27.9956429748      -15.8610084740      -16.2276493398  MEOH      2790            0.0000000000
     44454      3482  MEOH      HO1            27.4271510821      -15.3476476631      -15.6455631133  MEOH      2790            0.0000000000
     44455      3482  MEOH      HO2            28.5669147250      -15.3811378266      -16.8713290080  MEOH      2790            0.0000000000
     44456      3482  MEOH      H1A            29.5679512700      -17.2258807922      -16.1145010409  MEOH      2790            0.0000000000
     44457      3482  MEOH      H1B            28.3142451841      -17.3607917994      -14.8195728499  MEOH      2790            0.0000000000
     44458      3482  MEOH      H1C            29.5547153911      -15.9963851277      -14.8498481578  MEOH      2790            0.0000000000
     44459      3482  MEOH      LP1A           28.1487046290      -15.5439823753      -16.3093039162  MEOH      2790            0.0000000000
     44460      3482  MEOH      LP1B           27.7113696210      -16.0351735568      -16.3135950446  MEOH      2790            0.0000000000
     44461      3483  MEOH      C1              3.7502663621       -0.4257601787        7.2581921096  MEOH      2791            0.0000000000
     44462      3483  MEOH      DC1             3.7617113808       -0.4236309274        7.2606275963  MEOH      2791            0.0000000000
     44463      3483  MEOH      O1              5.1783858754       -0.4728255894        7.2775958714  MEOH      2791            0.0000000000
     44464      3483  MEOH      DO1             5.1916688423       -0.4634076101        7.2795988349  MEOH      2791            0.0000000000
     44465      3483  MEOH      HO1             5.4694873527       -0.3067965399        6.3673243269  MEOH      2791            0.0000000000
     44466      3483  MEOH      HO2             5.4648430944        0.0693033305        8.0292197782  MEOH      2791            0.0000000000
     44467      3483  MEOH      H1A             3.3387435349       -0.8696065573        8.1898413760  MEOH      2791            0.0000000000
     44468      3483  MEOH      H1B             3.3413738271       -1.0036759589        6.4019554333  MEOH      2791            0.0000000000
     44469      3483  MEOH      H1C             3.4097606128        0.6266374221        7.1540953932  MEOH      2791            0.0000000000
     44470      3483  MEOH      LP1A            5.3077003613       -0.1550531060        7.3468664462  MEOH      2791            0.0000000000
     44471      3483  MEOH      LP1B            5.2881092136       -0.8006419610        7.2228490399  MEOH      2791            0.0000000000
     44472      3484  MEOH      C1             12.5683041896        8.9126294429      -31.5941131921  MEOH      2792            0.0000000000
     44473      3484  MEOH      DC1            12.5692740381        8.9203848173      -31.5922609758  MEOH      2792            0.0000000000
     44474      3484  MEOH      O1             13.4017282109        9.9450069084      -31.0624835997  MEOH      2792            0.0000000000
     44475      3484  MEOH      DO1            13.4066418893        9.9458175513      -31.0553531828  MEOH      2792            0.0000000000
     44476      3484  MEOH      HO1            13.2743177883       10.7387152037      -31.6053406031  MEOH      2792            0.0000000000
     44477      3484  MEOH      HO2            13.2458872773        9.9576542798      -30.1051677435  MEOH      2792            0.0000000000
     44478      3484  MEOH      H1A            12.7107290508        7.9736137380      -31.0176709432  MEOH      2792            0.0000000000
     44479      3484  MEOH      H1B            12.8212888360        8.7195667748      -32.6585597973  MEOH      2792            0.0000000000
     44480      3484  MEOH      H1C            11.5016699691        9.2126709700      -31.5129496427  MEOH      2792            0.0000000000
     44481      3484  MEOH      LP1A           13.2286301162       10.1237158201      -30.8163125728  MEOH      2792            0.0000000000
     44482      3484  MEOH      LP1B           13.7181616053        9.9320201983      -31.2114844463  MEOH      2792            0.0000000000
     44483      3485  MEOH      C1             -9.7065896430      -21.5385632636       19.2219443652  MEOH      2793            0.0000000000
     44484      3485  MEOH      DC1            -9.6794876589      -21.5342688975       19.2450403354  MEOH      2793            0.0000000000
     44485      3485  MEOH      O1            -10.3602317312      -21.2991351237       20.4692151400  MEOH      2793            0.0000000000
     44486      3485  MEOH      DO1           -10.3264139544      -21.2840409585       20.4912640558  MEOH      2793            0.0000000000
     44487      3485  MEOH      HO1           -11.2963575362      -21.2167751457       20.2288293831  MEOH      2793            0.0000000000
     44488      3485  MEOH      HO2           -10.0974039082      -22.0341715016       21.0450128984  MEOH      2793            0.0000000000
     44489      3485  MEOH      H1A            -8.6187771117      -21.7086323124       19.3704752243  MEOH      2793            0.0000000000
     44490      3485  MEOH      H1B            -9.8574128291      -20.6691323824       18.5469159885  MEOH      2793            0.0000000000
     44491      3485  MEOH      H1C           -10.1497662961      -22.4397362046       18.7467572589  MEOH      2793            0.0000000000
     44492      3485  MEOH      LP1A          -10.4491345661      -21.6031690136       20.6180764168  MEOH      2793            0.0000000000
     44493      3485  MEOH      LP1B          -10.3707723311      -20.9554993431       20.5348150339  MEOH      2793            0.0000000000
     44494      3486  MEOH      C1             17.1660088759       14.9062390642       26.3822633981  MEOH      2794            0.0000000000
     44495      3486  MEOH      DC1            17.1752072383       14.9207788405       26.3857005899  MEOH      2794            0.0000000000
     44496      3486  MEOH      O1             18.2674848944       14.0723744415       26.0388670365  MEOH      2794            0.0000000000
     44497      3486  MEOH      DO1            18.2797890973       14.0953162300       26.0506717152  MEOH      2794            0.0000000000
     44498      3486  MEOH      HO1            18.3099280520       13.9715415316       25.0750562134  MEOH      2794            0.0000000000
     44499      3486  MEOH      HO2            19.0210403219       14.3245459199       26.5951617101  MEOH      2794            0.0000000000
     44500      3486  MEOH      H1A            16.8345217037       14.6738611125       27.4168830106  MEOH      2794            0.0000000000
     44501      3486  MEOH      H1B            16.3142995351       14.6917825472       25.7018807108  MEOH      2794            0.0000000000
     44502      3486  MEOH      H1C            17.4530317059       15.9779924827       26.3249615096  MEOH      2794            0.0000000000
     44503      3486  MEOH      LP1A           18.5557568972       14.2662771291       25.9964288444  MEOH      2794            0.0000000000
     44504      3486  MEOH      LP1B           18.1670791172       13.7371117179       26.0346734616  MEOH      2794            0.0000000000
     44505      3487  MEOH      C1             27.1443384415       -1.5726762576      -27.5751813740  MEOH      2795            0.0000000000
     44506      3487  MEOH      DC1            27.1487688517       -1.5606398351      -27.5680892652  MEOH      2795            0.0000000000
     44507      3487  MEOH      O1             26.7250676948       -2.0950578140      -26.3172331979  MEOH      2795            0.0000000000
     44508      3487  MEOH      DO1            26.7268307172       -2.0859989604      -26.3114342644  MEOH      2795            0.0000000000
     44509      3487  MEOH      HO1            25.7835691740       -2.3064537478      -26.4161892210  MEOH      2795            0.0000000000
     44510      3487  MEOH      HO2            27.3399328877       -2.8224650486      -26.1336044651  MEOH      2795            0.0000000000
     44511      3487  MEOH      H1A            28.2441448991       -1.4175626354      -27.5489798467  MEOH      2795            0.0000000000
     44512      3487  MEOH      H1B            26.6396612872       -0.6090258689      -27.8010129480  MEOH      2795            0.0000000000
     44513      3487  MEOH      H1C            26.9030475509       -2.3011439818      -28.3785707451  MEOH      2795            0.0000000000
     44514      3487  MEOH      LP1A           26.7737550111       -2.4415635935      -26.3092776984  MEOH      2795            0.0000000000
     44515      3487  MEOH      LP1B           26.6165703751       -1.8349098328      -26.1097449825  MEOH      2795            0.0000000000
     44516      3488  MEOH      C1             -1.0256224223       15.4488929922      -15.9653419775  MEOH      2796            0.0000000000
     44517      3488  MEOH      DC1            -1.0224683649       15.4615591743      -15.9657072915  MEOH      2796            0.0000000000
     44518      3488  MEOH      O1             -1.1780000725       16.2552174331      -14.8006044543  MEOH      2796            0.0000000000
     44519      3488  MEOH      DO1            -1.1722790709       16.2581450138      -14.7986325993  MEOH      2796            0.0000000000
     44520      3488  MEOH      HO1            -0.8378351846       17.1415443141      -14.9996333694  MEOH      2796            0.0000000000
     44521      3488  MEOH      HO2            -2.1006544406       16.1372259404      -14.5254918848  MEOH      2796            0.0000000000
     44522      3488  MEOH      H1A            -1.3629162920       14.4154267681      -15.7362101154  MEOH      2796            0.0000000000
     44523      3488  MEOH      H1B             0.0391841825       15.4052071446      -16.2793474569  MEOH      2796            0.0000000000
     44524      3488  MEOH      H1C            -1.6542250771       15.8564026757      -16.7857781800  MEOH      2796            0.0000000000
     44525      3488  MEOH      LP1A           -1.4918419908       16.4101359392      -14.8024770942  MEOH      2796            0.0000000000
     44526      3488  MEOH      LP1B           -0.8944032803       16.2268827845      -14.5974542460  MEOH      2796            0.0000000000
     44527      3489  MEOH      C1            -25.7794117347       14.5317224793       20.7727077682  MEOH      2797            0.0000000000
     44528      3489  MEOH      DC1           -25.7858178812       14.5423359088       20.7771445097  MEOH      2797            0.0000000000
     44529      3489  MEOH      O1            -24.4581964970       14.4133757256       21.3108348098  MEOH      2797            0.0000000000
     44530      3489  MEOH      DO1           -24.4643360419       14.4241477341       21.3293944953  MEOH      2797            0.0000000000
     44531      3489  MEOH      HO1           -24.1917227675       13.4890282555       21.1864422621  MEOH      2797            0.0000000000
     44532      3489  MEOH      HO2           -23.9437039034       15.1061202172       20.8677744954  MEOH      2797            0.0000000000
     44533      3489  MEOH      H1A           -26.1099786564       15.5893864459       20.8526667913  MEOH      2797            0.0000000000
     44534      3489  MEOH      H1B           -26.4856828076       13.8788003320       21.3287606807  MEOH      2797            0.0000000000
     44535      3489  MEOH      H1C           -25.8030318934       14.2304272792       19.7036033343  MEOH      2797            0.0000000000
     44536      3489  MEOH      LP1A          -24.2212871718       14.4850576207       21.0633763737  MEOH      2797            0.0000000000
     44537      3489  MEOH      LP1B          -24.4742861663       14.3330293241       21.6511076096  MEOH      2797            0.0000000000
     44538      3490  MEOH      C1             31.1538309895      -32.8423876117       -5.3766932541  MEOH      2798            0.0000000000
     44539      3490  MEOH      DC1            31.1448374854      -32.8467157776       -5.3746533624  MEOH      2798            0.0000000000
     44540      3490  MEOH      O1             30.9161899946      -31.5589674652       -4.7909959377  MEOH      2798            0.0000000000
     44541      3490  MEOH      DO1            30.9160182977      -31.5647891945       -4.7987954694  MEOH      2798            0.0000000000
     44542      3490  MEOH      HO1            31.5780582967      -31.3933595763       -4.1015001948  MEOH      2798            0.0000000000
     44543      3490  MEOH      HO2            30.8086769833      -30.9390759043       -5.5292881597  MEOH      2798            0.0000000000
     44544      3490  MEOH      H1A            30.3211254662      -33.0959591219       -6.0670728604  MEOH      2798            0.0000000000
     44545      3490  MEOH      H1B            31.2311009256      -33.6206859746       -4.5876419146  MEOH      2798            0.0000000000
     44546      3490  MEOH      H1C            32.0895511482      -32.8269129265       -5.9754497314  MEOH      2798            0.0000000000
     44547      3490  MEOH      LP1A           31.0896733373      -31.3123228162       -4.9686752750  MEOH      2798            0.0000000000
     44548      3490  MEOH      LP1B           30.6939684267      -31.5892988271       -4.5222998580  MEOH      2798            0.0000000000
     44549      3491  MEOH      C1            -27.1726755368       14.3495035844        5.5510676806  MEOH      2799            0.0000000000
     44550      3491  MEOH      DC1           -27.1432868043       14.3518353691        5.5504309951  MEOH      2799            0.0000000000
     44551      3491  MEOH      O1            -25.8360212642       14.0496832700        5.1705631558  MEOH      2799            0.0000000000
     44552      3491  MEOH      DO1           -25.8199606882       14.0665330232        5.1523909179  MEOH      2799            0.0000000000
     44553      3491  MEOH      HO1           -25.3358749632       13.9706546703        5.9979132376  MEOH      2799            0.0000000000
     44554      3491  MEOH      HO2           -25.9152676287       13.2602300853        4.6125455179  MEOH      2799            0.0000000000
     44555      3491  MEOH      H1A           -27.8242464097       14.3628335205        4.6512906466  MEOH      2799            0.0000000000
     44556      3491  MEOH      H1B           -27.2213624706       15.3444756636        6.0429834703  MEOH      2799            0.0000000000
     44557      3491  MEOH      H1C           -27.5617051046       13.5884529013        6.2608414859  MEOH      2799            0.0000000000
     44558      3491  MEOH      LP1A          -25.7939709962       13.7032364234        5.1439857706  MEOH      2799            0.0000000000
     44559      3491  MEOH      LP1B          -25.6560673762       14.3459251360        5.1220105551  MEOH      2799            0.0000000000
     44560      3492  MEOH      C1            -15.6804450833       20.3368864131      -32.1264014393  MEOH      2800            0.0000000000
     44561      3492  MEOH      DC1           -15.6617297244       20.3504890622      -32.1327241359  MEOH      2800            0.0000000000
     44562      3492  MEOH      O1            -15.2293285976       21.5159749390      -31.4563807838  MEOH      2800            0.0000000000
     44563      3492  MEOH      DO1           -15.2109310839       21.5265334806      -31.4650688481  MEOH      2800            0.0000000000
     44564      3492  MEOH      HO1           -16.0156917241       21.9122871365      -31.0496011427  MEOH      2800            0.0000000000
     44565      3492  MEOH      HO2           -14.4884391910       21.2356390736      -30.8965641267  MEOH      2800            0.0000000000
     44566      3492  MEOH      H1A           -14.8293408947       19.8387820987      -32.6380993510  MEOH      2800            0.0000000000
     44567      3492  MEOH      H1B           -16.4517206868       20.6002820062      -32.8814363425  MEOH      2800            0.0000000000
     44568      3492  MEOH      H1C           -16.1188664079       19.6263363152      -31.3934442085  MEOH      2800            0.0000000000
     44569      3492  MEOH      LP1A          -15.1333137158       21.4382528808      -31.1289049463  MEOH      2800            0.0000000000
     44570      3492  MEOH      LP1B          -15.2390398766       21.7890660032      -31.6750745462  MEOH      2800            0.0000000000
     44571      3493  MEOH      C1            -19.4057680627      -25.9351905189      -17.0456592467  MEOH      2801            0.0000000000
     44572      3493  MEOH      DC1           -19.4122993648      -25.9465067987      -17.0409407014  MEOH      2801            0.0000000000
     44573      3493  MEOH      O1            -18.2085315930      -25.1736915204      -16.9182104844  MEOH      2801            0.0000000000
     44574      3493  MEOH      DO1           -18.2131266035      -25.1774737901      -16.9128796173  MEOH      2801            0.0000000000
     44575      3493  MEOH      HO1           -17.4836532900      -25.8033950360      -16.7806425780  MEOH      2801            0.0000000000
     44576      3493  MEOH      HO2           -18.1830174316      -24.6176537568      -17.7126102786  MEOH      2801            0.0000000000
     44577      3493  MEOH      H1A           -20.2445663133      -25.2481243792      -17.2878959376  MEOH      2801            0.0000000000
     44578      3493  MEOH      H1B           -19.6286892351      -26.4592365972      -16.0917185457  MEOH      2801            0.0000000000
     44579      3493  MEOH      H1C           -19.2934789502      -26.6800131419      -17.8623301818  MEOH      2801            0.0000000000
     44580      3493  MEOH      LP1A          -18.0648762782      -25.1228663174      -17.2332976934  MEOH      2801            0.0000000000
     44581      3493  MEOH      LP1B          -18.1569939408      -25.0868600198      -16.5830923546  MEOH      2801            0.0000000000
     44582      3494  MEOH      C1             -2.5379161609      -21.3314019916       13.6287324517  MEOH      2802            0.0000000000
     44583      3494  MEOH      DC1            -2.5272029789      -21.3336969804       13.6307356449  MEOH      2802            0.0000000000
     44584      3494  MEOH      O1             -3.8615030202      -21.8229289065       13.8508910043  MEOH      2802            0.0000000000
     44585      3494  MEOH      DO1            -3.8574509386      -21.8255017153       13.8490459132  MEOH      2802            0.0000000000
     44586      3494  MEOH      HO1            -4.4630187692      -21.3129872984       13.2860561966  MEOH      2802            0.0000000000
     44587      3494  MEOH      HO2            -3.8059952400      -22.7883095153       13.7743458064  MEOH      2802            0.0000000000
     44588      3494  MEOH      H1A            -1.8369529006      -21.8479406952       14.3187754042  MEOH      2802            0.0000000000
     44589      3494  MEOH      H1B            -2.4921897450      -20.2382994715       13.8220119783  MEOH      2802            0.0000000000
     44590      3494  MEOH      H1C            -2.2222255177      -21.5235171485       12.5809957545  MEOH      2802            0.0000000000
     44591      3494  MEOH      LP1A           -3.9294096252      -22.0872205125       13.6317138158  MEOH      2802            0.0000000000
     44592      3494  MEOH      LP1B           -4.0112161500      -21.6485593405       14.1148630354  MEOH      2802            0.0000000000
     44593      3495  MEOH      C1             11.1185889521       -4.3584757631       20.0951524711  MEOH      2803            0.0000000000
     44594      3495  MEOH      DC1            11.1244990754       -4.3591489045       20.0864352646  MEOH      2803            0.0000000000
     44595      3495  MEOH      O1             10.7479189113       -5.3440237254       21.0619135913  MEOH      2803            0.0000000000
     44596      3495  MEOH      DO1            10.7449535536       -5.3491625321       21.0465705638  MEOH      2803            0.0000000000
     44597      3495  MEOH      HO1            11.5430794168       -5.6007636146       21.5545639757  MEOH      2803            0.0000000000
     44598      3495  MEOH      HO2             9.9762616938       -4.9835033283       21.5261012494  MEOH      2803            0.0000000000
     44599      3495  MEOH      H1A            10.2162872356       -4.0185957981       19.5431975611  MEOH      2803            0.0000000000
     44600      3495  MEOH      H1B            11.8345446163       -4.7952462974       19.3664824585  MEOH      2803            0.0000000000
     44601      3495  MEOH      H1C            11.5795658514       -3.4854989008       20.6047922437  MEOH      2803            0.0000000000
     44602      3495  MEOH      LP1A           10.6521607666       -5.1886698863       21.3605698525  MEOH      2803            0.0000000000
     44603      3495  MEOH      LP1B           10.7707022438       -5.6638563757       20.9215996733  MEOH      2803            0.0000000000
     44604      3496  MEOH      C1             -9.4266599991      -19.4209686892        6.4038706829  MEOH      2804            0.0000000000
     44605      3496  MEOH      DC1            -9.4286225920      -19.4196430272        6.4038556625  MEOH      2804            0.0000000000
     44606      3496  MEOH      O1             -8.3720341295      -19.6395202325        5.4615997705  MEOH      2804            0.0000000000
     44607      3496  MEOH      DO1            -8.3761326368      -19.6425204205        5.4591386476  MEOH      2804            0.0000000000
     44608      3496  MEOH      HO1            -7.6855225604      -20.1661456652        5.9000829747  MEOH      2804            0.0000000000
     44609      3496  MEOH      HO2            -8.7988211332      -19.9668655641        4.6543836363  MEOH      2804            0.0000000000
     44610      3496  MEOH      H1A           -10.1911143641      -18.7489338433        5.9585621497  MEOH      2804            0.0000000000
     44611      3496  MEOH      H1B            -9.0230220258      -18.9594910214        7.3303887619  MEOH      2804            0.0000000000
     44612      3496  MEOH      H1C            -9.9142008483      -20.3841874018        6.6662342334  MEOH      2804            0.0000000000
     44613      3496  MEOH      LP1A           -8.4340855243      -19.9309271343        5.2779380107  MEOH      2804            0.0000000000
     44614      3496  MEOH      LP1B           -8.1393520512      -19.3786939143        5.4797293644  MEOH      2804            0.0000000000
     44615      3497  MEOH      C1             36.6116984661        1.5049987701       27.3335736107  MEOH      2805            0.0000000000
     44616      3497  MEOH      DC1            36.6185179753        1.5041570611       27.3308221049  MEOH      2805            0.0000000000
     44617      3497  MEOH      O1             36.5916468472        0.2220749612       26.7065211519  MEOH      2805            0.0000000000
     44618      3497  MEOH      DO1            36.5965405766        0.2204716328       26.7001812773  MEOH      2805            0.0000000000
     44619      3497  MEOH      HO1            37.4326444698       -0.2162593855       26.9102022734  MEOH      2805            0.0000000000
     44620      3497  MEOH      HO2            35.7483849692       -0.1837401627       26.9617141993  MEOH      2805            0.0000000000
     44621      3497  MEOH      H1A            35.6745786247        2.0511156851       27.0929832574  MEOH      2805            0.0000000000
     44622      3497  MEOH      H1B            37.4886273696        2.0882854108       26.9798881655  MEOH      2805            0.0000000000
     44623      3497  MEOH      H1C            36.6789789198        1.4031187603       28.4378447751  MEOH      2805            0.0000000000
     44624      3497  MEOH      LP1A           36.4512273247       -0.0146547103       26.9227187937  MEOH      2805            0.0000000000
     44625      3497  MEOH      LP1B           36.7182146169        0.2459086956       26.3810790636  MEOH      2805            0.0000000000
     44626      3498  MEOH      C1             -3.7917356316        2.5805194997       17.6296210731  MEOH      2806            0.0000000000
     44627      3498  MEOH      DC1            -3.7854695719        2.5841673012       17.6271084288  MEOH      2806            0.0000000000
     44628      3498  MEOH      O1             -2.8143313664        1.6999683421       17.0719526467  MEOH      2806            0.0000000000
     44629      3498  MEOH      DO1            -2.8189651843        1.6997737433       17.0559148226  MEOH      2806            0.0000000000
     44630      3498  MEOH      HO1            -2.9466523433        1.6983163801       16.1110216234  MEOH      2806            0.0000000000
     44631      3498  MEOH      HO2            -1.9633782806        1.9808229636       17.4433009029  MEOH      2806            0.0000000000
     44632      3498  MEOH      H1A            -3.6848123563        2.6135614679       18.7349701774  MEOH      2806            0.0000000000
     44633      3498  MEOH      H1B            -4.8149593747        2.2188191815       17.3919089545  MEOH      2806            0.0000000000
     44634      3498  MEOH      H1C            -3.6530135669        3.6034213774       17.2188304459  MEOH      2806            0.0000000000
     44635      3498  MEOH      LP1A           -2.5205833660        1.8766073661       17.0011658721  MEOH      2806            0.0000000000
     44636      3498  MEOH      LP1B           -2.9402536756        1.3736305438       17.0598194930  MEOH      2806            0.0000000000
     44637      3499  MEOH      C1            -26.8752615647       -7.8634028552       -8.4393155899  MEOH      2807            0.0000000000
     44638      3499  MEOH      DC1           -26.8613725154       -7.8633371337       -8.4333487466  MEOH      2807            0.0000000000
     44639      3499  MEOH      O1            -26.4676196816       -7.6328074604       -7.0894183655  MEOH      2807            0.0000000000
     44640      3499  MEOH      DO1           -26.4455433696       -7.6365396773       -7.0882901903  MEOH      2807            0.0000000000
     44641      3499  MEOH      HO1           -26.7501983510       -6.7261691940       -6.8917915719  MEOH      2807            0.0000000000
     44642      3499  MEOH      HO2           -26.8773231169       -8.3491593795       -6.5796311312  MEOH      2807            0.0000000000
     44643      3499  MEOH      H1A           -26.6746010125       -8.9231180251       -8.7058865962  MEOH      2807            0.0000000000
     44644      3499  MEOH      H1B           -26.3080545844       -7.1953153421       -9.1221452304  MEOH      2807            0.0000000000
     44645      3499  MEOH      H1C           -27.9614403172       -7.6701006478       -8.5703536557  MEOH      2807            0.0000000000
     44646      3499  MEOH      LP1A          -26.7208379028       -7.7323257857       -6.8692442632  MEOH      2807            0.0000000000
     44647      3499  MEOH      LP1B          -26.1417511023       -7.5052643754       -7.0829044917  MEOH      2807            0.0000000000
     44648      3500  MEOH      C1            -15.0779797897        9.2024753067      -15.3201706945  MEOH      2808            0.0000000000
     44649      3500  MEOH      DC1           -15.1001861613        9.1992481321      -15.3247041910  MEOH      2808            0.0000000000
     44650      3500  MEOH      O1            -16.1174555278        9.3313329386      -16.2924122641  MEOH      2808            0.0000000000
     44651      3500  MEOH      DO1           -16.1369882540        9.3261762257      -16.2945413397  MEOH      2808            0.0000000000
     44652      3500  MEOH      HO1           -15.8438114051        8.8131728855      -17.0654122987  MEOH      2808            0.0000000000
     44653      3500  MEOH      HO2           -16.9561768100        9.1864209501      -15.8271734787  MEOH      2808            0.0000000000
     44654      3500  MEOH      H1A           -15.1898367103        9.9682111538      -14.5230147238  MEOH      2808            0.0000000000
     44655      3500  MEOH      H1B           -14.0873750292        9.3386098192      -15.8044129937  MEOH      2808            0.0000000000
     44656      3500  MEOH      H1C           -15.1218738594        8.1956419685      -14.8525373550  MEOH      2808            0.0000000000
     44657      3500  MEOH      LP1A          -16.3569796726        9.0804736428      -16.2455315886  MEOH      2808            0.0000000000
     44658      3500  MEOH      LP1B          -16.0579721838        9.6104968106      -16.4949690817  MEOH      2808            0.0000000000
     44659      3501  MEOH      C1             34.4307957851      -33.0383494463      -18.0261685847  MEOH      2809            0.0000000000
     44660      3501  MEOH      DC1            34.4117129657      -33.0527727203      -18.0367837915  MEOH      2809            0.0000000000
     44661      3501  MEOH      O1             33.6161092681      -34.0417477793      -18.6259448021  MEOH      2809            0.0000000000
     44662      3501  MEOH      DO1            33.5983369332      -34.0553575625      -18.6338886920  MEOH      2809            0.0000000000
     44663      3501  MEOH      HO1            34.0518560881      -34.2251938538      -19.4729231056  MEOH      2809            0.0000000000
     44664      3501  MEOH      HO2            33.5241204901      -34.7437103558      -17.9628561146  MEOH      2809            0.0000000000
     44665      3501  MEOH      H1A            34.0069808477      -32.7217337975      -17.0492057245  MEOH      2809            0.0000000000
     44666      3501  MEOH      H1B            34.4848983136      -32.1476169835      -18.6879764088  MEOH      2809            0.0000000000
     44667      3501  MEOH      H1C            35.4585034865      -33.4289195403      -17.8661908261  MEOH      2809            0.0000000000
     44668      3501  MEOH      LP1A           33.7256859380      -34.3593461002      -18.5278414894  MEOH      2809            0.0000000000
     44669      3501  MEOH      LP1B           33.3626764732      -33.8925399853      -18.8157047892  MEOH      2809            0.0000000000
     44670      3502  MEOH      C1             16.4357013604       32.5023253445       -7.7115617544  MEOH      2810            0.0000000000
     44671      3502  MEOH      DC1            16.4417459590       32.5164759330       -7.7201858252  MEOH      2810            0.0000000000
     44672      3502  MEOH      O1             16.0857636555       33.8162617407       -8.1530783147  MEOH      2810            0.0000000000
     44673      3502  MEOH      DO1            16.0861595297       33.8272105192       -8.1722204124  MEOH      2810            0.0000000000
     44674      3502  MEOH      HO1            16.8883547276       34.2086110221       -8.5309799055  MEOH      2810            0.0000000000
     44675      3502  MEOH      HO2            15.2699967532       33.7224713248       -8.6694383826  MEOH      2810            0.0000000000
     44676      3502  MEOH      H1A            15.6020037788       32.0654125853       -7.1213274068  MEOH      2810            0.0000000000
     44677      3502  MEOH      H1B            17.3408632391       32.5493139764       -7.0690704764  MEOH      2810            0.0000000000
     44678      3502  MEOH      H1C            16.6380569310       31.8419612739       -8.5817873099  MEOH      2810            0.0000000000
     44679      3502  MEOH      LP1A           15.9709765017       33.8048989890       -8.4835246753  MEOH      2810            0.0000000000
     44680      3502  MEOH      LP1B           16.1311741938       34.0460053310       -7.8929710950  MEOH      2810            0.0000000000
     44681      3503  MEOH      C1              9.4082592671       14.9506322969       -3.1442209009  MEOH      2811            0.0000000000
     44682      3503  MEOH      DC1             9.4003387858       14.9430136443       -3.1297589911  MEOH      2811            0.0000000000
     44683      3503  MEOH      O1              9.2918443944       15.3290295670       -4.5128787099  MEOH      2811            0.0000000000
     44684      3503  MEOH      DO1             9.2851304599       15.3289969136       -4.5022593544  MEOH      2811            0.0000000000
     44685      3503  MEOH      HO1             9.6776914660       16.2142944411       -4.6041373622  MEOH      2811            0.0000000000
     44686      3503  MEOH      HO2             9.6841286844       14.5987446692       -5.0165621460  MEOH      2811            0.0000000000
     44687      3503  MEOH      H1A             8.9698327714       13.9386852422       -3.0098097148  MEOH      2811            0.0000000000
     44688      3503  MEOH      H1B             8.8645713906       15.6817024744       -2.5084057638  MEOH      2811            0.0000000000
     44689      3503  MEOH      H1C            10.4790699014       14.9319454238       -2.8486935956  MEOH      2811            0.0000000000
     44690      3503  MEOH      LP1A            9.5731512059       15.2214255419       -4.6911701891  MEOH      2811            0.0000000000
     44691      3503  MEOH      LP1B            8.9858928733       15.4901943045       -4.5669119786  MEOH      2811            0.0000000000
     44692      3504  MEOH      C1            -24.6462602979       30.7033423079      -29.1830359539  MEOH      2812            0.0000000000
     44693      3504  MEOH      DC1           -24.6428010367       30.6967946457      -29.1887191316  MEOH      2812            0.0000000000
     44694      3504  MEOH      O1            -25.8509728174       30.3012558310      -28.5311817932  MEOH      2812            0.0000000000
     44695      3504  MEOH      DO1           -25.8451575081       30.2950759597      -28.5400754453  MEOH      2812            0.0000000000
     44696      3504  MEOH      HO1           -25.9540975979       30.8245578549      -27.7209841189  MEOH      2812            0.0000000000
     44697      3504  MEOH      HO2           -26.5452309745       30.2961488924      -29.2085882677  MEOH      2812            0.0000000000
     44698      3504  MEOH      H1A           -24.4538897719       30.0251158673      -30.0417113733  MEOH      2812            0.0000000000
     44699      3504  MEOH      H1B           -23.7937891435       30.6350029807      -28.4738507389  MEOH      2812            0.0000000000
     44700      3504  MEOH      H1C           -24.7432241395       31.7456524712      -29.5552033053  MEOH      2812            0.0000000000
     44701      3504  MEOH      LP1A          -26.1200910498       30.4914651409      -28.6490622218  MEOH      2812            0.0000000000
     44702      3504  MEOH      LP1B          -25.7858704485       30.0359890317      -28.3123320576  MEOH      2812            0.0000000000
     44703      3505  MEOH      C1            -27.1781675255       17.5368363967        4.1070687517  MEOH      2813            0.0000000000
     44704      3505  MEOH      DC1           -27.1614361896       17.5553055794        4.1325693974  MEOH      2813            0.0000000000
     44705      3505  MEOH      O1            -27.5421471887       17.0135496376        2.8377884868  MEOH      2813            0.0000000000
     44706      3505  MEOH      DO1           -27.5308681887       17.0418169959        2.8482758275  MEOH      2813            0.0000000000
     44707      3505  MEOH      HO1           -26.7385313315       16.9317677149        2.3007472676  MEOH      2813            0.0000000000
     44708      3505  MEOH      HO2           -28.0222074562       16.1948205267        3.0381002051  MEOH      2813            0.0000000000
     44709      3505  MEOH      H1A           -28.0672173547       17.4838530676        4.7712254863  MEOH      2813            0.0000000000
     44710      3505  MEOH      H1B           -26.8526494782       18.5949048497        4.0129935112  MEOH      2813            0.0000000000
     44711      3505  MEOH      H1C           -26.3661579996       16.9140615563        4.5396343864  MEOH      2813            0.0000000000
     44712      3505  MEOH      LP1A          -27.5337710280       16.6637381909        2.8456492584  MEOH      2813            0.0000000000
     44713      3505  MEOH      LP1B          -27.6228629885       17.2747784916        2.6192834629  MEOH      2813            0.0000000000
     44714      3506  MEOH      C1              1.0083232186        4.1805855619       -6.1714779590  MEOH      2814            0.0000000000
     44715      3506  MEOH      DC1             1.0193923534        4.1727047093       -6.1732251447  MEOH      2814            0.0000000000
     44716      3506  MEOH      O1              0.0657746355        4.6056822265       -5.1914034175  MEOH      2814            0.0000000000
     44717      3506  MEOH      DO1             0.0765294912        4.6018355094       -5.1739217748  MEOH      2814            0.0000000000
     44718      3506  MEOH      HO1             0.0094238061        5.5705547615       -5.2735348714  MEOH      2814            0.0000000000
     44719      3506  MEOH      HO2            -0.7300744737        4.0744652700       -5.3505660403  MEOH      2814            0.0000000000
     44720      3506  MEOH      H1A             1.0947921634        3.0729571457       -6.1733258852  MEOH      2814            0.0000000000
     44721      3506  MEOH      H1B             1.9996590576        4.6443543691       -5.9804472066  MEOH      2814            0.0000000000
     44722      3506  MEOH      H1C             0.6491105386        4.4964924706       -7.1742192395  MEOH      2814            0.0000000000
     44723      3506  MEOH      LP1A           -0.2570075292        4.6031039865       -5.3266994886  MEOH      2814            0.0000000000
     44724      3506  MEOH      LP1B            0.2286659351        4.6688012527       -4.8881173923  MEOH      2814            0.0000000000
     44725      3507  MEOH      C1              5.2941417950       24.9705957816      -26.1738242506  MEOH      2815            0.0000000000
     44726      3507  MEOH      DC1             5.3075433861       24.9667130254      -26.1881296225  MEOH      2815            0.0000000000
     44727      3507  MEOH      O1              5.4507546414       23.8887552911      -27.0932909630  MEOH      2815            0.0000000000
     44728      3507  MEOH      DO1             5.4822621994       23.8949184499      -27.1082614644  MEOH      2815            0.0000000000
     44729      3507  MEOH      HO1             5.0668965535       23.1031623707      -26.6732948536  MEOH      2815            0.0000000000
     44730      3507  MEOH      HO2             5.0433973091       24.2031908581      -27.9155380541  MEOH      2815            0.0000000000
     44731      3507  MEOH      H1A             5.5727845074       25.9328602122      -26.6541641348  MEOH      2815            0.0000000000
     44732      3507  MEOH      H1B             5.9186174863       24.8175356785      -25.2677758428  MEOH      2815            0.0000000000
     44733      3507  MEOH      H1C             4.2356531557       25.0291959547      -25.8414256635  MEOH      2815            0.0000000000
     44734      3507  MEOH      LP1A            5.1745120070       23.8728726424      -27.3076218950  MEOH      2815            0.0000000000
     44735      3507  MEOH      LP1B            5.7583793113       23.7303820840      -27.0405179610  MEOH      2815            0.0000000000
     44736      3508  MEOH      C1              6.7402830663      -31.7205976525       25.5954487286  MEOH      2816            0.0000000000
     44737      3508  MEOH      DC1             6.7469994480      -31.7263592534       25.5968175121  MEOH      2816            0.0000000000
     44738      3508  MEOH      O1              6.0013591183      -30.6332097020       25.0417678948  MEOH      2816            0.0000000000
     44739      3508  MEOH      DO1             6.0001812526      -30.6490038770       25.0284935777  MEOH      2816            0.0000000000
     44740      3508  MEOH      HO1             5.4453740670      -30.2869284404       25.7572187391  MEOH      2816            0.0000000000
     44741      3508  MEOH      HO2             6.6725932340      -30.0375989186       24.6735389471  MEOH      2816            0.0000000000
     44742      3508  MEOH      H1A             7.5212361803      -32.0400519935       24.8726886309  MEOH      2816            0.0000000000
     44743      3508  MEOH      H1B             6.0635291704      -32.5761226796       25.8061667683  MEOH      2816            0.0000000000
     44744      3508  MEOH      H1C             7.2403194920      -31.4065542615       26.5365445387  MEOH      2816            0.0000000000
     44745      3508  MEOH      LP1A            6.1821577100      -30.3355577807       25.0766276570  MEOH      2816            0.0000000000
     44746      3508  MEOH      LP1B            5.7016541566      -30.7500585537       24.9038429812  MEOH      2816            0.0000000000
     44747      3509  MEOH      C1             10.1084624863      -23.8121331569       22.0870109710  MEOH      2817            0.0000000000
     44748      3509  MEOH      DC1            10.1160510740      -23.8274289037       22.0671747534  MEOH      2817            0.0000000000
     44749      3509  MEOH      O1             10.1298547974      -22.4053451113       21.8284482863  MEOH      2817            0.0000000000
     44750      3509  MEOH      DO1            10.1274679695      -22.4168985741       21.8116758536  MEOH      2817            0.0000000000
     44751      3509  MEOH      HO1            11.0457517764      -22.0958283030       21.7495048262  MEOH      2817            0.0000000000
     44752      3509  MEOH      HO2             9.4589784755      -22.2256030950       21.1513088853  MEOH      2817            0.0000000000
     44753      3509  MEOH      H1A             9.0978154707      -24.0971882222       22.4498569708  MEOH      2817            0.0000000000
     44754      3509  MEOH      H1B            10.8453811577      -24.0764527296       22.8753047212  MEOH      2817            0.0000000000
     44755      3509  MEOH      H1C            10.3184194565      -24.3731632163       21.1513377676  MEOH      2817            0.0000000000
     44756      3509  MEOH      LP1A           10.1180804439      -22.3468266009       21.4835759207  MEOH      2817            0.0000000000
     44757      3509  MEOH      LP1B           10.1337340297      -22.2282018445       22.1302846900  MEOH      2817            0.0000000000
     44758      3510  MEOH      C1             32.0985842748      -18.6588011163       24.0451536183  MEOH      2818            0.0000000000
     44759      3510  MEOH      DC1            32.1003481710      -18.6272728231       24.0477386027  MEOH      2818            0.0000000000
     44760      3510  MEOH      O1             33.0161052697      -17.6331659255       23.6725874008  MEOH      2818            0.0000000000
     44761      3510  MEOH      DO1            33.0179230012      -17.6157129307       23.6702162485  MEOH      2818            0.0000000000
     44762      3510  MEOH      HO1            33.2358083660      -17.1355648390       24.4757210810  MEOH      2818            0.0000000000
     44763      3510  MEOH      HO2            33.7229509507      -18.0942358921       23.1943785868  MEOH      2818            0.0000000000
     44764      3510  MEOH      H1A            31.8437683989      -19.2781084990       23.1586728021  MEOH      2818            0.0000000000
     44765      3510  MEOH      H1B            31.1553058910      -18.2263881137       24.4420993154  MEOH      2818            0.0000000000
     44766      3510  MEOH      H1C            32.5684337684      -19.3124004866       24.8109018252  MEOH      2818            0.0000000000
     44767      3510  MEOH      LP1A           33.3443508412      -17.7528279130       23.6934645062  MEOH      2818            0.0000000000
     44768      3510  MEOH      LP1B           32.8415240853      -17.3448577638       23.5782485757  MEOH      2818            0.0000000000
     44769      3511  MEOH      C1              4.5758853408        3.3741642681        1.2132576451  MEOH      2819            0.0000000000
     44770      3511  MEOH      DC1             4.5754686907        3.3692483249        1.2252065634  MEOH      2819            0.0000000000
     44771      3511  MEOH      O1              3.8130444826        3.0545671753        2.3789136184  MEOH      2819            0.0000000000
     44772      3511  MEOH      DO1             3.8232677793        3.0411785884        2.3868580537  MEOH      2819            0.0000000000
     44773      3511  MEOH      HO1             4.3745771866        3.2171022080        3.1529700678  MEOH      2819            0.0000000000
     44774      3511  MEOH      HO2             2.9838769550        3.5487895257        2.2833862430  MEOH      2819            0.0000000000
     44775      3511  MEOH      H1A             3.9678807756        3.2193532241        0.2963688899  MEOH      2819            0.0000000000
     44776      3511  MEOH      H1B             5.4680900879        2.7147665730        1.1542121459  MEOH      2819            0.0000000000
     44777      3511  MEOH      H1C             4.9089208097        4.4334821619        1.2486691857  MEOH      2819            0.0000000000
     44778      3511  MEOH      LP1A            3.6359087448        3.3364022628        2.4870427718  MEOH      2819            0.0000000000
     44779      3511  MEOH      LP1B            3.8534640467        2.7163575072        2.4594150422  MEOH      2819            0.0000000000
     44780      3512  MEOH      C1            -27.6933497784       17.2506806856      -19.5734948492  MEOH      2820            0.0000000000
     44781      3512  MEOH      DC1           -27.6974312724       17.2726323621      -19.5689592526  MEOH      2820            0.0000000000
     44782      3512  MEOH      O1            -28.3074951884       18.2005748176      -18.6947306112  MEOH      2820            0.0000000000
     44783      3512  MEOH      DO1           -28.3051368365       18.2239043967      -18.6951737369  MEOH      2820            0.0000000000
     44784      3512  MEOH      HO1           -29.2014016293       18.3484320247      -19.0410967776  MEOH      2820            0.0000000000
     44785      3512  MEOH      HO2           -28.2268265438       17.8137160543      -17.8088791179  MEOH      2820            0.0000000000
     44786      3512  MEOH      H1A           -26.7306842816       16.8942593827      -19.1485713313  MEOH      2820            0.0000000000
     44787      3512  MEOH      H1B           -27.5077492982       17.7072259981      -20.5692055705  MEOH      2820            0.0000000000
     44788      3512  MEOH      H1C           -28.3565921856       16.3705539047      -19.7142334695  MEOH      2820            0.0000000000
     44789      3512  MEOH      LP1A          -28.4670755944       18.0342500386      -18.4313484517  MEOH      2820            0.0000000000
     44790      3512  MEOH      LP1B          -28.2409750582       18.5260441166      -18.8049340941  MEOH      2820            0.0000000000
     44791      3513  MEOH      C1             35.6438731027        6.1169907409        7.7399775280  MEOH      2821            0.0000000000
     44792      3513  MEOH      DC1            35.6382031388        6.1044813031        7.7442839488  MEOH      2821            0.0000000000
     44793      3513  MEOH      O1             34.5254186488        5.3206782330        7.3853131105  MEOH      2821            0.0000000000
     44794      3513  MEOH      DO1            34.5234090254        5.3194236377        7.3832498848  MEOH      2821            0.0000000000
     44795      3513  MEOH      HO1            34.6322127541        4.4736816984        7.8458474625  MEOH      2821            0.0000000000
     44796      3513  MEOH      HO2            33.7440170980        5.8737233853        7.5416866263  MEOH      2821            0.0000000000
     44797      3513  MEOH      H1A            35.7170696901        7.0212485316        7.0986655070  MEOH      2821            0.0000000000
     44798      3513  MEOH      H1B            36.5613494271        5.5080892865        7.5923387359  MEOH      2821            0.0000000000
     44799      3513  MEOH      H1C            35.5713398615        6.4511516071        8.7970472731  MEOH      2821            0.0000000000
     44800      3513  MEOH      LP1A           34.2626179192        5.3767416206        7.6095733903  MEOH      2821            0.0000000000
     44801      3513  MEOH      LP1B           34.5953775277        5.1387119891        7.0946345228  MEOH      2821            0.0000000000
     44802      3514  MEOH      C1              9.9034495393       15.8761558314        0.2598522385  MEOH      2822            0.0000000000
     44803      3514  MEOH      DC1             9.8883778950       15.8746169838        0.2436287821  MEOH      2822            0.0000000000
     44804      3514  MEOH      O1              9.3407051320       17.1161611352       -0.1772002152  MEOH      2822            0.0000000000
     44805      3514  MEOH      DO1             9.3173020914       17.1086703861       -0.1914785819  MEOH      2822            0.0000000000
     44806      3514  MEOH      HO1             8.6794831552       17.3552227896        0.4910325464  MEOH      2822            0.0000000000
     44807      3514  MEOH      HO2            10.1038622429       17.7103389388       -0.2509834232  MEOH      2822            0.0000000000
     44808      3514  MEOH      H1A            10.8222173897       15.6414418143       -0.3190225052  MEOH      2822            0.0000000000
     44809      3514  MEOH      H1B             9.1647593480       15.0543269459        0.1447215098  MEOH      2822            0.0000000000
     44810      3514  MEOH      H1C            10.1959011125       15.9580633036        1.3285356543  MEOH      2822            0.0000000000
     44811      3514  MEOH      LP1A            9.5268436955       17.3836786770       -0.0495804672  MEOH      2822            0.0000000000
     44812      3514  MEOH      LP1B            9.0672169125       17.0560946008       -0.3871911799  MEOH      2822            0.0000000000
     44813      3515  MEOH      C1            -17.1562835557        6.1514220760      -19.6551574844  MEOH      2823            0.0000000000
     44814      3515  MEOH      DC1           -17.1731054573        6.1643544473      -19.6557297949  MEOH      2823            0.0000000000
     44815      3515  MEOH      O1            -18.1847534235        7.1168482997      -19.8612212103  MEOH      2823            0.0000000000
     44816      3515  MEOH      DO1           -18.1976139291        7.1195524816      -19.8653291108  MEOH      2823            0.0000000000
     44817      3515  MEOH      HO1           -18.7218981050        7.1258872517      -19.0535740785  MEOH      2823            0.0000000000
     44818      3515  MEOH      HO2           -17.7212978949        7.9253086690      -20.1304809438  MEOH      2823            0.0000000000
     44819      3515  MEOH      H1A           -16.5726819112        6.0411720078      -20.5940797621  MEOH      2823            0.0000000000
     44820      3515  MEOH      H1B           -17.5839863334        5.1548767848      -19.4137267148  MEOH      2823            0.0000000000
     44821      3515  MEOH      H1C           -16.4756463682        6.4681485035      -18.8361712872  MEOH      2823            0.0000000000
     44822      3515  MEOH      LP1A          -18.0750950469        7.4325921192      -19.7573901895  MEOH      2823            0.0000000000
     44823      3515  MEOH      LP1B          -18.4629691452        6.9654443919      -20.0101267808  MEOH      2823            0.0000000000
     44824      3516  MEOH      C1             19.4046545576        2.0515718461       36.0055277139  MEOH      2824            0.0000000000
     44825      3516  MEOH      DC1            19.3936382502        2.0568449727       36.0035501843  MEOH      2824            0.0000000000
     44826      3516  MEOH      O1             17.9767924481        2.1534853089       36.0548631309  MEOH      2824            0.0000000000
     44827      3516  MEOH      DO1            17.9657822611        2.1542845981       36.0563406342  MEOH      2824            0.0000000000
     44828      3516  MEOH      HO1            17.6267114014        1.2741974804       35.8422692082  MEOH      2824            0.0000000000
     44829      3516  MEOH      HO2            17.7581013311        2.5999233754       36.8877900473  MEOH      2824            0.0000000000
     44830      3516  MEOH      H1A            19.8545650345        3.0652663109       36.0712931791  MEOH      2824            0.0000000000
     44831      3516  MEOH      H1B            19.7312941677        1.5854974587       35.0513777092  MEOH      2824            0.0000000000
     44832      3516  MEOH      H1C            19.7735067549        1.4258022886       36.8461712278  MEOH      2824            0.0000000000
     44833      3516  MEOH      LP1A           17.8632702248        2.0882709226       36.3794548570  MEOH      2824            0.0000000000
     44834      3516  MEOH      LP1B           17.8525377247        2.2468456300       35.7412636823  MEOH      2824            0.0000000000
     44835      3517  MEOH      C1            -17.9528129155      -29.8425466881      -23.7725379600  MEOH      2825            0.0000000000
     44836      3517  MEOH      DC1           -17.9468636605      -29.8445490745      -23.7670834795  MEOH      2825            0.0000000000
     44837      3517  MEOH      O1            -17.3519422608      -29.3043954318      -24.9527536426  MEOH      2825            0.0000000000
     44838      3517  MEOH      DO1           -17.3457787037      -29.3078645611      -24.9496095006  MEOH      2825            0.0000000000
     44839      3517  MEOH      HO1           -17.8386765929      -29.6749671949      -25.7055260241  MEOH      2825            0.0000000000
     44840      3517  MEOH      HO2           -17.3481714265      -28.3424049188      -24.8284152554  MEOH      2825            0.0000000000
     44841      3517  MEOH      H1A           -17.4702387028      -29.4049236950      -22.8725772691  MEOH      2825            0.0000000000
     44842      3517  MEOH      H1B           -17.8305064947      -30.9465194267      -23.7479141182  MEOH      2825            0.0000000000
     44843      3517  MEOH      H1C           -19.0350433403      -29.5917292833      -23.7587925002  MEOH      2825            0.0000000000
     44844      3517  MEOH      LP1A          -17.5063967002      -29.0022876816      -25.0386299107  MEOH      2825            0.0000000000
     44845      3517  MEOH      LP1B          -17.0894040317      -29.5105084794      -25.0580678859  MEOH      2825            0.0000000000
     44846      3518  MEOH      C1            -32.9949314747       -3.5137749304      -27.7002248666  MEOH      2826            0.0000000000
     44847      3518  MEOH      DC1           -32.9956678324       -3.5257160688      -27.7085506849  MEOH      2826            0.0000000000
     44848      3518  MEOH      O1            -32.4570174738       -4.4130139312      -26.7275016818  MEOH      2826            0.0000000000
     44849      3518  MEOH      DO1           -32.4550612096       -4.4190573122      -26.7243962003  MEOH      2826            0.0000000000
     44850      3518  MEOH      HO1           -33.0567671029       -5.1737218111      -26.6772632115  MEOH      2826            0.0000000000
     44851      3518  MEOH      HO2           -31.5167682412       -4.5111094651      -26.9447771940  MEOH      2826            0.0000000000
     44852      3518  MEOH      H1A           -32.3706354252       -2.5981943731      -27.7795198069  MEOH      2826            0.0000000000
     44853      3518  MEOH      H1B           -33.9852330174       -3.1570110881      -27.3447766761  MEOH      2826            0.0000000000
     44854      3518  MEOH      H1C           -33.0931800752       -4.0095667574      -28.6895977371  MEOH      2826            0.0000000000
     44855      3518  MEOH      LP1A          -32.2351324392       -4.6362305491      -26.8806074392  MEOH      2826            0.0000000000
     44856      3518  MEOH      LP1B          -32.5800591953       -4.3331882986      -26.4097146413  MEOH      2826            0.0000000000
     44857      3519  MEOH      C1            -36.5956764677      -19.4032320505       -6.4356316873  MEOH      2827            0.0000000000
     44858      3519  MEOH      DC1           -36.6104629419      -19.4037274674       -6.4351918837  MEOH      2827            0.0000000000
     44859      3519  MEOH      O1            -35.8550071299      -19.9719731629       -5.3545243947  MEOH      2827            0.0000000000
     44860      3519  MEOH      DO1           -35.8652339874      -19.9693517565       -5.3533426247  MEOH      2827            0.0000000000
     44861      3519  MEOH      HO1           -35.0457031693      -19.4468250600       -5.2537942139  MEOH      2827            0.0000000000
     44862      3519  MEOH      HO2           -36.4760270331      -20.0852635248       -4.6180465776  MEOH      2827            0.0000000000
     44863      3519  MEOH      H1A           -37.5062568559      -20.0069340159       -6.6373946566  MEOH      2827            0.0000000000
     44864      3519  MEOH      H1B           -35.9782351250      -19.3969074567       -7.3592372247  MEOH      2827            0.0000000000
     44865      3519  MEOH      H1C           -36.9383230266      -18.3769223416       -6.1834358961  MEOH      2827            0.0000000000
     44866      3519  MEOH      LP1A          -35.9522992255      -19.8247790958       -5.0522527375  MEOH      2827            0.0000000000
     44867      3519  MEOH      LP1B          -35.6417717620      -20.2224018956       -5.4741744166  MEOH      2827            0.0000000000
     44868      3520  MEOH      C1             15.5666955944       12.5580894581       -3.4228024500  MEOH      2828            0.0000000000
     44869      3520  MEOH      DC1            15.5711418302       12.5450961739       -3.4222303916  MEOH      2828            0.0000000000
     44870      3520  MEOH      O1             15.1368414179       13.9106615976       -3.5606263253  MEOH      2828            0.0000000000
     44871      3520  MEOH      DO1            15.1262931543       13.8912771037       -3.5813094326  MEOH      2828            0.0000000000
     44872      3520  MEOH      HO1            15.8586867256       14.5531587425       -3.6445117907  MEOH      2828            0.0000000000
     44873      3520  MEOH      HO2            14.2686723681       14.0483802095       -3.1504847828  MEOH      2828            0.0000000000
     44874      3520  MEOH      H1A            15.2605645117       12.1247005955       -2.4466985336  MEOH      2828            0.0000000000
     44875      3520  MEOH      H1B            16.6650130567       12.4522252829       -3.5524655864  MEOH      2828            0.0000000000
     44876      3520  MEOH      H1C            15.0800590161       12.0093710965       -4.2573166802  MEOH      2828            0.0000000000
     44877      3520  MEOH      LP1A           15.0887822127       13.9871295904       -3.8987726825  MEOH      2828            0.0000000000
     44878      3520  MEOH      LP1B           15.1017834772       14.0578759288       -3.2450334206  MEOH      2828            0.0000000000
     44879      3521  MEOH      C1              7.5013794720       33.2831096085        0.5104479518  MEOH      2829            0.0000000000
     44880      3521  MEOH      DC1             7.5024823575       33.2781902897        0.4999778909  MEOH      2829            0.0000000000
     44881      3521  MEOH      O1              8.0242786553       31.9584029748        0.5633617203  MEOH      2829            0.0000000000
     44882      3521  MEOH      DO1             8.0176794600       31.9475412389        0.5497412185  MEOH      2829            0.0000000000
     44883      3521  MEOH      HO1             8.9879896719       32.0409326018        0.4902184551  MEOH      2829            0.0000000000
     44884      3521  MEOH      HO2             7.6389557837       31.5671631514        1.3629601736  MEOH      2829            0.0000000000
     44885      3521  MEOH      H1A             6.4129732565       33.2907893084        0.7332346949  MEOH      2829            0.0000000000
     44886      3521  MEOH      H1B             7.6727990879       33.7146021480       -0.4988837596  MEOH      2829            0.0000000000
     44887      3521  MEOH      H1C             8.0377219029       33.9001489777        1.2627246404  MEOH      2829            0.0000000000
     44888      3521  MEOH      LP1A            8.0858208995       31.8671826369        0.8956137363  MEOH      2829            0.0000000000
     44889      3521  MEOH      LP1B            8.0399297911       31.8229214525        0.2410268028  MEOH      2829            0.0000000000
     44890      3522  MEOH      C1              4.3162077892      -36.8187786978        7.9907373918  MEOH      2830            0.0000000000
     44891      3522  MEOH      DC1             4.3111125454      -36.8161475006        8.0028324682  MEOH      2830            0.0000000000
     44892      3522  MEOH      O1              4.6703897763      -35.6189219180        7.2969031971  MEOH      2830            0.0000000000
     44893      3522  MEOH      DO1             4.6830345681      -35.6105921720        7.3192932678  MEOH      2830            0.0000000000
     44894      3522  MEOH      HO1             4.8147396204      -35.8895877095        6.3766841187  MEOH      2830            0.0000000000
     44895      3522  MEOH      HO2             3.9249955233      -35.0156173713        7.4428861805  MEOH      2830            0.0000000000
     44896      3522  MEOH      H1A             3.9565677865      -36.5704835766        9.0121724623  MEOH      2830            0.0000000000
     44897      3522  MEOH      H1B             5.1966630995      -37.4930999749        8.0571471999  MEOH      2830            0.0000000000
     44898      3522  MEOH      H1C             3.5046107391      -37.3434956958        7.4427380301  MEOH      2830            0.0000000000
     44899      3522  MEOH      LP1A            4.3822049893      -35.4600940799        7.1776419444  MEOH      2830            0.0000000000
     44900      3522  MEOH      LP1B            5.0168531575      -35.5710016458        7.3098172612  MEOH      2830            0.0000000000
     44901      3523  MEOH      C1            -16.4767159878       -9.5984167615       13.4877175114  MEOH      2831            0.0000000000
     44902      3523  MEOH      DC1           -16.4773361175       -9.6559791983       13.4709742663  MEOH      2831            0.0000000000
     44903      3523  MEOH      O1            -16.3887881461       -8.5980613430       14.4969313894  MEOH      2831            0.0000000000
     44904      3523  MEOH      DO1           -16.3866679229       -8.6447860474       14.4889020621  MEOH      2831            0.0000000000
     44905      3523  MEOH      HO1           -17.0279600915       -8.7268609413       15.2151026000  MEOH      2831            0.0000000000
     44906      3523  MEOH      HO2           -15.4468367555       -8.4350522606       14.6614173108  MEOH      2831            0.0000000000
     44907      3523  MEOH      H1A           -15.9239315674       -9.2237729179       12.5998028900  MEOH      2831            0.0000000000
     44908      3523  MEOH      H1B           -17.5379831545       -9.7559025954       13.1992193054  MEOH      2831            0.0000000000
     44909      3523  MEOH      H1C           -16.0017782734      -10.5331543199       13.8551693653  MEOH      2831            0.0000000000
     44910      3523  MEOH      LP1A          -16.1576550694       -8.6946201377       14.7413774980  MEOH      2831            0.0000000000
     44911      3523  MEOH      LP1B          -16.5966158067       -8.3281998073       14.4164179429  MEOH      2831            0.0000000000
     44912      3524  MEOH      C1            -35.4806001556       34.9022789206       10.7673809485  MEOH      2832            0.0000000000
     44913      3524  MEOH      DC1           -35.4735474211       34.9013347592       10.7717090453  MEOH      2832            0.0000000000
     44914      3524  MEOH      O1            -36.2311030221       36.0120861647       11.2653718307  MEOH      2832            0.0000000000
     44915      3524  MEOH      DO1           -36.2258160789       36.0125226648       11.2707411822  MEOH      2832            0.0000000000
     44916      3524  MEOH      HO1           -35.8065277080       36.8194592453       10.9355468581  MEOH      2832            0.0000000000
     44917      3524  MEOH      HO2           -37.1511977786       35.8307294037       11.0175102478  MEOH      2832            0.0000000000
     44918      3524  MEOH      H1A           -35.9497630391       33.9541322726       11.1068292107  MEOH      2832            0.0000000000
     44919      3524  MEOH      H1B           -34.4400144650       34.9432512967       11.1544515967  MEOH      2832            0.0000000000
     44920      3524  MEOH      H1C           -35.4691613207       34.9191330884        9.6565676921  MEOH      2832            0.0000000000
     44921      3524  MEOH      LP1A          -36.4883867441       36.0924508310       11.0421082940  MEOH      2832            0.0000000000
     44922      3524  MEOH      LP1B          -36.1066768319       36.1103906716       11.5773884121  MEOH      2832            0.0000000000
     44923      3525  MEOH      C1             29.4594866021      -26.9725499650       20.6841903885  MEOH      2833            0.0000000000
     44924      3525  MEOH      DC1            29.4429623950      -26.9599296673       20.6935161261  MEOH      2833            0.0000000000
     44925      3525  MEOH      O1             28.5895056424      -28.0278666925       20.2588678064  MEOH      2833            0.0000000000
     44926      3525  MEOH      DO1            28.5772236872      -28.0139332930       20.2643447138  MEOH      2833            0.0000000000
     44927      3525  MEOH      HO1            28.7316228244      -28.8117542904       20.8122419487  MEOH      2833            0.0000000000
     44928      3525  MEOH      HO2            27.7197463635      -27.6437503049       20.0668433349  MEOH      2833            0.0000000000
     44929      3525  MEOH      H1A            29.6820241866      -26.3009447271       19.8276015550  MEOH      2833            0.0000000000
     44930      3525  MEOH      H1B            30.4110838236      -27.3889476250       21.0783942915  MEOH      2833            0.0000000000
     44931      3525  MEOH      H1C            28.9948755424      -26.3604843778       21.4865826119  MEOH      2833            0.0000000000
     44932      3525  MEOH      LP1A           28.2840206247      -28.0068195125       20.4283845318  MEOH      2833            0.0000000000
     44933      3525  MEOH      LP1B           28.7452867311      -28.2184890030       20.0100799708  MEOH      2833            0.0000000000
     44934      3526  MEOH      C1            -16.6841198993       -4.1757543208       -7.8753387807  MEOH      2834            0.0000000000
     44935      3526  MEOH      DC1           -16.6921182975       -4.1869269867       -7.8497768621  MEOH      2834            0.0000000000
     44936      3526  MEOH      O1            -16.8677325479       -4.7731852482       -9.1557697093  MEOH      2834            0.0000000000
     44937      3526  MEOH      DO1           -16.8717742977       -4.7773799585       -9.1388431371  MEOH      2834            0.0000000000
     44938      3526  MEOH      HO1           -16.5703958773       -4.1282554780       -9.8164939314  MEOH      2834            0.0000000000
     44939      3526  MEOH      HO2           -16.4263562690       -5.6353748534       -9.1036538272  MEOH      2834            0.0000000000
     44940      3526  MEOH      H1A           -17.0176905045       -4.8759765057       -7.0798888797  MEOH      2834            0.0000000000
     44941      3526  MEOH      H1B           -17.2855381694       -3.2443532139       -7.8038612116  MEOH      2834            0.0000000000
     44942      3526  MEOH      H1C           -15.6101772855       -3.9300367453       -7.7318426639  MEOH      2834            0.0000000000
     44943      3526  MEOH      LP1A          -16.5814126097       -4.9530782696       -9.2460990724  MEOH      2834            0.0000000000
     44944      3526  MEOH      LP1B          -17.1890411859       -4.7031435023       -9.2755816995  MEOH      2834            0.0000000000
     44945      3527  MEOH      C1            -34.0752146925      -16.8809352311       15.9996700698  MEOH      2835            0.0000000000
     44946      3527  MEOH      DC1           -34.0872340868      -16.8670509596       15.9956436908  MEOH      2835            0.0000000000
     44947      3527  MEOH      O1            -35.1642944890      -15.9768917638       15.8103427338  MEOH      2835            0.0000000000
     44948      3527  MEOH      DO1           -35.1785065251      -15.9721066654       15.8147463424  MEOH      2835            0.0000000000
     44949      3527  MEOH      HO1           -34.7914255268      -15.0849728079       15.8900253119  MEOH      2835            0.0000000000
     44950      3527  MEOH      HO2           -35.5682632770      -16.2439752509       14.9698811763  MEOH      2835            0.0000000000
     44951      3527  MEOH      H1A           -34.4166953771      -17.9343931684       15.9105728402  MEOH      2835            0.0000000000
     44952      3527  MEOH      H1B           -33.6229893219      -16.7384822358       17.0044189735  MEOH      2835            0.0000000000
     44953      3527  MEOH      H1C           -33.3025028071      -16.6960524771       15.2231034532  MEOH      2835            0.0000000000
     44954      3527  MEOH      LP1A          -35.1996153651      -15.9015503893       15.4703778635  MEOH      2835            0.0000000000
     44955      3527  MEOH      LP1B          -35.3186916342      -15.9095512475       16.1171436080  MEOH      2835            0.0000000000
     44956      3528  MEOH      C1            -12.6759820158      -17.5352034539      -13.1413101036  MEOH      2836            0.0000000000
     44957      3528  MEOH      DC1           -12.6639233115      -17.5489619477      -13.1409400180  MEOH      2836            0.0000000000
     44958      3528  MEOH      O1            -13.8100693115      -17.6031385185      -13.9992162544  MEOH      2836            0.0000000000
     44959      3528  MEOH      DO1           -13.7908546071      -17.6128922907      -14.0014020802  MEOH      2836            0.0000000000
     44960      3528  MEOH      HO1           -13.5913559170      -18.1126247949      -14.7951359647  MEOH      2836            0.0000000000
     44961      3528  MEOH      HO2           -14.5551785005      -17.8687017415      -13.4377997677  MEOH      2836            0.0000000000
     44962      3528  MEOH      H1A           -12.9084252192      -16.8567047908      -12.2928227897  MEOH      2836            0.0000000000
     44963      3528  MEOH      H1B           -11.8096145077      -17.1091430748      -13.6910381238  MEOH      2836            0.0000000000
     44964      3528  MEOH      H1C           -12.4222792491      -18.5470130519      -12.7589526224  MEOH      2836            0.0000000000
     44965      3528  MEOH      LP1A          -14.0054407607      -17.8818092037      -13.9175299886  MEOH      2836            0.0000000000
     44966      3528  MEOH      LP1B          -13.8114744080      -17.3296789200      -14.2176604663  MEOH      2836            0.0000000000
     44967      3529  MEOH      C1             -2.5553522793       19.6086735131      -32.4234729034  MEOH      2837            0.0000000000
     44968      3529  MEOH      DC1            -2.5744125840       19.6077219142      -32.4290073644  MEOH      2837            0.0000000000
     44969      3529  MEOH      O1             -3.6263426289       18.9270255800      -33.0706857733  MEOH      2837            0.0000000000
     44970      3529  MEOH      DO1            -3.6488388217       18.9310295816      -33.0742501538  MEOH      2837            0.0000000000
     44971      3529  MEOH      HO1            -3.6641735268       19.2961050997      -33.9669274434  MEOH      2837            0.0000000000
     44972      3529  MEOH      HO2            -3.4386386650       17.9830565106      -32.9498982788  MEOH      2837            0.0000000000
     44973      3529  MEOH      H1A            -2.4191652669       19.2191974656      -31.3919291544  MEOH      2837            0.0000000000
     44974      3529  MEOH      H1B            -2.7629408814       20.6996154079      -32.3907046948  MEOH      2837            0.0000000000
     44975      3529  MEOH      H1C            -1.6005468059       19.4332140782      -32.9637334840  MEOH      2837            0.0000000000
     44976      3529  MEOH      LP1A           -3.5074891543       18.6358207489      -33.2242227326  MEOH      2837            0.0000000000
     44977      3529  MEOH      LP1B           -3.9270619503       19.0976509206      -33.0163269387  MEOH      2837            0.0000000000
     44978      3530  MEOH      C1             -3.3073948193      -16.6619729329       23.7294205265  MEOH      2838            0.0000000000
     44979      3530  MEOH      DC1            -3.2948250215      -16.6920474260       23.7239924805  MEOH      2838            0.0000000000
     44980      3530  MEOH      O1             -3.9368747870      -15.5214987872       23.1698661384  MEOH      2838            0.0000000000
     44981      3530  MEOH      DO1            -3.9281944496      -15.5571344100       23.1654980550  MEOH      2838            0.0000000000
     44982      3530  MEOH      HO1            -4.7968232148      -15.7454823582       22.7809959012  MEOH      2838            0.0000000000
     44983      3530  MEOH      HO2            -3.9304830867      -14.8539397566       23.8735877363  MEOH      2838            0.0000000000
     44984      3530  MEOH      H1A            -2.3415308643      -16.3273334959       24.1646724852  MEOH      2838            0.0000000000
     44985      3530  MEOH      H1B            -3.1264426877      -17.4150422786       22.9328881113  MEOH      2838            0.0000000000
     44986      3530  MEOH      H1C            -3.9306710685      -17.0881445595       24.5444208103  MEOH      2838            0.0000000000
     44987      3530  MEOH      LP1A           -4.1317238077      -15.3612173739       23.4124433997  MEOH      2838            0.0000000000
     44988      3530  MEOH      LP1B           -3.8393936236      -15.4827083632       22.8359608737  MEOH      2838            0.0000000000
     44989      3531  MEOH      C1             33.9280351812       21.3353723954       24.9508710804  MEOH      2839            0.0000000000
     44990      3531  MEOH      DC1            33.9326648598       21.3308728497       24.9450270545  MEOH      2839            0.0000000000
     44991      3531  MEOH      O1             35.2135201802       20.7407681249       24.7485847070  MEOH      2839            0.0000000000
     44992      3531  MEOH      DO1            35.2169660665       20.7248243396       24.7531083518  MEOH      2839            0.0000000000
     44993      3531  MEOH      HO1            35.2553441740       20.5098869572       23.8073915069  MEOH      2839            0.0000000000
     44994      3531  MEOH      HO2            35.8493067586       21.3889756556       25.0899092218  MEOH      2839            0.0000000000
     44995      3531  MEOH      H1A            33.8338396484       21.6907010007       25.9992936022  MEOH      2839            0.0000000000
     44996      3531  MEOH      H1B            33.1262467641       20.5945747056       24.7442915147  MEOH      2839            0.0000000000
     44997      3531  MEOH      H1C            33.8046205929       22.2025351637       24.2674103473  MEOH      2839            0.0000000000
     44998      3531  MEOH      LP1A           35.4487025272       20.9878429394       24.6702055027  MEOH      2839            0.0000000000
     44999      3531  MEOH      LP1B           35.1958830435       20.3956710319       24.8042347551  MEOH      2839            0.0000000000
     45000      3532  MEOH      C1             19.9137209656       -2.3254774073       -1.1165480039  MEOH      2840            0.0000000000
     45001      3532  MEOH      DC1            19.9080473865       -2.3380788521       -1.1153092700  MEOH      2840            0.0000000000
     45002      3532  MEOH      O1             19.4032631583       -1.3857361399       -0.1751163906  MEOH      2840            0.0000000000
     45003      3532  MEOH      DO1            19.4044960035       -1.3892959231       -0.1831422433  MEOH      2840            0.0000000000
     45004      3532  MEOH      HO1            19.4797034535       -0.4944879145       -0.5502610053  MEOH      2840            0.0000000000
     45005      3532  MEOH      HO2            18.5493216713       -1.7313288084        0.1286098778  MEOH      2840            0.0000000000
     45006      3532  MEOH      H1A            19.9318420856       -3.3396457410       -0.6632763221  MEOH      2840            0.0000000000
     45007      3532  MEOH      H1B            20.9441196810       -2.0489845379       -1.4266305429  MEOH      2840            0.0000000000
     45008      3532  MEOH      H1C            19.2467353935       -2.3425079231       -2.0048954631  MEOH      2840            0.0000000000
     45009      3532  MEOH      LP1A           19.0596922555       -1.3411073369       -0.2247883619  MEOH      2840            0.0000000000
     45010      3532  MEOH      LP1B           19.6587026503       -1.2810186026        0.0400228743  MEOH      2840            0.0000000000
     45011      3533  MEOH      C1             -5.7013532905       28.4172286891       20.2974219799  MEOH      2841            0.0000000000
     45012      3533  MEOH      DC1            -5.7094632326       28.4110111849       20.3159035332  MEOH      2841            0.0000000000
     45013      3533  MEOH      O1             -4.5848103741       29.3089732109       20.2711511034  MEOH      2841            0.0000000000
     45014      3533  MEOH      DO1            -4.5859657478       29.3059824438       20.2810393689  MEOH      2841            0.0000000000
     45015      3533  MEOH      HO1            -4.0201461118       29.1058865922       21.0332600826  MEOH      2841            0.0000000000
     45016      3533  MEOH      HO2            -4.2210643509       29.2395739597       19.3746174590  MEOH      2841            0.0000000000
     45017      3533  MEOH      H1A            -6.3851506849       28.6554796261       19.4548196927  MEOH      2841            0.0000000000
     45018      3533  MEOH      H1B            -6.2527631131       28.5275657640       21.2555941667  MEOH      2841            0.0000000000
     45019      3533  MEOH      H1C            -5.3473481076       27.3713989135       20.1739658682  MEOH      2841            0.0000000000
     45020      3533  MEOH      LP1A           -4.3251307032       29.1701109438       20.0819851993  MEOH      2841            0.0000000000
     45021      3533  MEOH      LP1B           -4.6615560253       29.6020797254       20.4463614803  MEOH      2841            0.0000000000
     45022      3534  MEOH      C1            -34.8261834347       -5.3702056349       -4.8066957824  MEOH      2842            0.0000000000
     45023      3534  MEOH      DC1           -34.8356820619       -5.3748248652       -4.8022303057  MEOH      2842            0.0000000000
     45024      3534  MEOH      O1            -35.9866398218       -6.1953358263       -4.6783451208  MEOH      2842            0.0000000000
     45025      3534  MEOH      DO1           -35.9933636307       -6.1918484186       -4.6697634402  MEOH      2842            0.0000000000
     45026      3534  MEOH      HO1           -36.5247021523       -6.0523537424       -5.4726656179  MEOH      2842            0.0000000000
     45027      3534  MEOH      HO2           -35.6528186892       -7.0841255922       -4.4795582888  MEOH      2842            0.0000000000
     45028      3534  MEOH      H1A           -34.2099636895       -5.4461794898       -3.8853803097  MEOH      2842            0.0000000000
     45029      3534  MEOH      H1B           -35.1253571992       -4.3097354830       -4.9488897202  MEOH      2842            0.0000000000
     45030      3534  MEOH      H1C           -34.2146832033       -5.6932052644       -5.6762127210  MEOH      2842            0.0000000000
     45031      3534  MEOH      LP1A          -35.9239659200       -6.5119505815       -4.8137226625  MEOH      2842            0.0000000000
     45032      3534  MEOH      LP1B          -36.2398280849       -6.0206870656       -4.5113316067  MEOH      2842            0.0000000000
     45033      3535  MEOH      C1            -36.8021792851       32.0171622068      -36.1620583274  MEOH      2843            0.0000000000
     45034      3535  MEOH      DC1           -36.7967469678       32.0288760529      -36.1609634374  MEOH      2843            0.0000000000
     45035      3535  MEOH      O1            -35.4390963373       32.4039575410      -36.0699426756  MEOH      2843            0.0000000000
     45036      3535  MEOH      DO1           -35.4326766014       32.4129156634      -36.0739569646  MEOH      2843            0.0000000000
     45037      3535  MEOH      HO1           -35.4331191750       33.2450404310      -35.5867824064  MEOH      2843            0.0000000000
     45038      3535  MEOH      HO2           -35.0064646608       31.6378080684      -35.6615986802  MEOH      2843            0.0000000000
     45039      3535  MEOH      H1A           -36.9213319869       31.0443580752      -36.6852941778  MEOH      2843            0.0000000000
     45040      3535  MEOH      H1B           -37.4052100206       32.7995726721      -36.6704959324  MEOH      2843            0.0000000000
     45041      3535  MEOH      H1C           -37.1501908268       31.9031781121      -35.1131462273  MEOH      2843            0.0000000000
     45042      3535  MEOH      LP1A          -35.2954777645       32.2684517443      -35.7809584466  MEOH      2843            0.0000000000
     45043      3535  MEOH      LP1B          -35.3498078321       32.5952234583      -36.3491288352  MEOH      2843            0.0000000000
     45044      3536  MEOH      C1              9.6043040586        8.9151168531      -15.0506566431  MEOH      2844            0.0000000000
     45045      3536  MEOH      DC1             9.6141796441        8.9149912272      -15.0627830934  MEOH      2844            0.0000000000
     45046      3536  MEOH      O1              8.8842039170        9.3851509641      -13.9108446427  MEOH      2844            0.0000000000
     45047      3536  MEOH      DO1             8.8891870344        9.3890660622      -13.9215494288  MEOH      2844            0.0000000000
     45048      3536  MEOH      HO1             8.1455405394        9.9326646199      -14.2198838170  MEOH      2844            0.0000000000
     45049      3536  MEOH      HO2             8.7037604275        8.5996242228      -13.3711337133  MEOH      2844            0.0000000000
     45050      3536  MEOH      H1A            10.4833390256        8.3295681553      -14.7060536110  MEOH      2844            0.0000000000
     45051      3536  MEOH      H1B             9.9519996376        9.7760759958      -15.6607206881  MEOH      2844            0.0000000000
     45052      3536  MEOH      H1C             8.9495487849        8.2605518781      -15.6647911773  MEOH      2844            0.0000000000
     45053      3536  MEOH      LP1A            8.6349766248        9.1554210836      -13.8236096791  MEOH      2844            0.0000000000
     45054      3536  MEOH      LP1B            9.0199730120        9.6881236961      -13.8000553088  MEOH      2844            0.0000000000
     45055      3537  MEOH      C1             35.0799872958       -2.8194433755       -9.4828069154  MEOH      2845            0.0000000000
     45056      3537  MEOH      DC1            35.0810291129       -2.8385177810       -9.4836678634  MEOH      2845            0.0000000000
     45057      3537  MEOH      O1             34.3562707291       -2.2308572887      -10.5666470773  MEOH      2845            0.0000000000
     45058      3537  MEOH      DO1            34.3536865316       -2.2450151113      -10.5723637083  MEOH      2845            0.0000000000
     45059      3537  MEOH      HO1            34.0610686318       -1.3625970595      -10.2506092694  MEOH      2845            0.0000000000
     45060      3537  MEOH      HO2            34.9440249972       -2.2893834747      -11.3360751811  MEOH      2845            0.0000000000
     45061      3537  MEOH      H1A            35.3859676770       -3.8555663524       -9.7419327226  MEOH      2845            0.0000000000
     45062      3537  MEOH      H1B            34.4375398332       -2.8520770382       -8.5769828144  MEOH      2845            0.0000000000
     45063      3537  MEOH      H1C            35.9904056112       -2.2186925839       -9.2717193046  MEOH      2845            0.0000000000
     45064      3537  MEOH      LP1A           34.5746253348       -2.0509423963      -10.7726856602  MEOH      2845            0.0000000000
     45065      3537  MEOH      LP1B           34.0187192393       -2.3215651969      -10.5484518255  MEOH      2845            0.0000000000
     45066      3538  MEOH      C1              1.0719156634        3.1711061566      -12.6042600278  MEOH      2846            0.0000000000
     45067      3538  MEOH      DC1             1.0702774721        3.1585809860      -12.6056747955  MEOH      2846            0.0000000000
     45068      3538  MEOH      O1              1.4681470689        4.5246629326      -12.8138527740  MEOH      2846            0.0000000000
     45069      3538  MEOH      DO1             1.4647600871        4.5128045848      -12.8272987645  MEOH      2846            0.0000000000
     45070      3538  MEOH      HO1             1.1883448682        5.0466892353      -12.0456735841  MEOH      2846            0.0000000000
     45071      3538  MEOH      HO2             2.4069001411        4.4837883449      -13.0546264002  MEOH      2846            0.0000000000
     45072      3538  MEOH      H1A             1.3725189518        2.5699061875      -13.4888600845  MEOH      2846            0.0000000000
     45073      3538  MEOH      H1B            -0.0288981300        3.1140771946      -12.4654158994  MEOH      2846            0.0000000000
     45074      3538  MEOH      H1C             1.5751349439        2.7481677559      -11.7085957686  MEOH      2846            0.0000000000
     45075      3538  MEOH      LP1A            1.7915050985        4.5753058637      -12.6898572974  MEOH      2846            0.0000000000
     45076      3538  MEOH      LP1B            1.2158647085        4.6983958179      -12.9831764144  MEOH      2846            0.0000000000
     45077      3539  MEOH      C1             29.4864605719       16.1367905538      -12.2642508782  MEOH      2847            0.0000000000
     45078      3539  MEOH      DC1            29.4933972238       16.1470954172      -12.2654212775  MEOH      2847            0.0000000000
     45079      3539  MEOH      O1             30.1550122097       15.3690282472      -13.2658244294  MEOH      2847            0.0000000000
     45080      3539  MEOH      DO1            30.1629826271       15.3686399391      -13.2701488437  MEOH      2847            0.0000000000
     45081      3539  MEOH      HO1            31.1050310758       15.5168805831      -13.1373571510  MEOH      2847            0.0000000000
     45082      3539  MEOH      HO2            29.7858345313       14.4754697822      -13.1873316816  MEOH      2847            0.0000000000
     45083      3539  MEOH      H1A            28.3856710039       16.0525182851      -12.3886756074  MEOH      2847            0.0000000000
     45084      3539  MEOH      H1B            29.7843091417       17.2041900033      -12.3434067064  MEOH      2847            0.0000000000
     45085      3539  MEOH      H1C            29.7568615734       15.7441563846      -11.2607357027  MEOH      2847            0.0000000000
     45086      3539  MEOH      LP1A           30.2182248743       15.0460407291      -13.1467310953  MEOH      2847            0.0000000000
     45087      3539  MEOH      LP1B           30.1937409119       15.5596568654      -13.5567897496  MEOH      2847            0.0000000000
     45088      3540  MEOH      C1            -31.5160691262      -11.9702276420      -25.5240779149  MEOH      2848            0.0000000000
     45089      3540  MEOH      DC1           -31.5257130466      -11.9681629426      -25.5172712083  MEOH      2848            0.0000000000
     45090      3540  MEOH      O1            -32.7097762988      -11.3606352578      -25.0220432644  MEOH      2848            0.0000000000
     45091      3540  MEOH      DO1           -32.7161673096      -11.3597780632      -25.0165080709  MEOH      2848            0.0000000000
     45092      3540  MEOH      HO1           -32.9999891832      -10.7112456497      -25.6815655298  MEOH      2848            0.0000000000
     45093      3540  MEOH      HO2           -33.2885243643      -12.0868168885      -24.7416668806  MEOH      2848            0.0000000000
     45094      3540  MEOH      H1A           -31.0711524491      -12.6270246920      -24.7462683062  MEOH      2848            0.0000000000
     45095      3540  MEOH      H1B           -30.7705441151      -11.1942975316      -25.8005664720  MEOH      2848            0.0000000000
     45096      3540  MEOH      H1C           -31.7509812901      -12.5862224942      -26.4183304617  MEOH      2848            0.0000000000
     45097      3540  MEOH      LP1A          -32.9898464360      -11.5442797826      -25.1237064670  MEOH      2848            0.0000000000
     45098      3540  MEOH      LP1B          -32.6287528878      -11.0815533641      -24.8269830085  MEOH      2848            0.0000000000
     45099      3541  MEOH      C1             16.5451146150      -24.7868540052      -23.2281602403  MEOH      2849            0.0000000000
     45100      3541  MEOH      DC1            16.5307022717      -24.7963122902      -23.2241376983  MEOH      2849            0.0000000000
     45101      3541  MEOH      O1             15.1703506063      -24.6059436839      -23.5339688048  MEOH      2849            0.0000000000
     45102      3541  MEOH      DO1            15.1685245317      -24.6333401809      -23.5371105462  MEOH      2849            0.0000000000
     45103      3541  MEOH      HO1            14.6895759172      -24.4504461619      -22.7059735035  MEOH      2849            0.0000000000
     45104      3541  MEOH      HO2            15.1649754297      -23.8877185704      -24.1859072954  MEOH      2849            0.0000000000
     45105      3541  MEOH      H1A            17.1258784470      -24.9541080113      -24.1603943683  MEOH      2849            0.0000000000
     45106      3541  MEOH      H1B            16.6670665252      -25.6727152814      -22.5688435251  MEOH      2849            0.0000000000
     45107      3541  MEOH      H1C            16.9490952734      -23.8797880366      -22.7298110072  MEOH      2849            0.0000000000
     45108      3541  MEOH      LP1A           15.1052663509      -24.2679188552      -23.5972400849  MEOH      2849            0.0000000000
     45109      3541  MEOH      LP1B           15.0059277628      -24.9149175038      -23.5334145925  MEOH      2849            0.0000000000
     45110      3542  MEOH      C1              3.2526947438      -27.9382125709      -28.4599402112  MEOH      2850            0.0000000000
     45111      3542  MEOH      DC1             3.2497141966      -27.9385548815      -28.4673070259  MEOH      2850            0.0000000000
     45112      3542  MEOH      O1              1.9275330343      -28.3406029729      -28.8122331764  MEOH      2850            0.0000000000
     45113      3542  MEOH      DO1             1.9206916250      -28.3394711108      -28.8156516554  MEOH      2850            0.0000000000
     45114      3542  MEOH      HO1             2.0131553362      -29.1033322140      -29.4053713781  MEOH      2850            0.0000000000
     45115      3542  MEOH      HO2             1.4452903968      -28.4245184888      -27.9747964767  MEOH      2850            0.0000000000
     45116      3542  MEOH      H1A             3.2185242770      -27.0239527315      -27.8296368498  MEOH      2850            0.0000000000
     45117      3542  MEOH      H1B             3.8453017139      -27.7332977008      -29.3770813538  MEOH      2850            0.0000000000
     45118      3542  MEOH      H1C             3.7481450008      -28.7404106836      -27.8722938628  MEOH      2850            0.0000000000
     45119      3542  MEOH      LP1A            1.8069362745      -28.5724226059      -28.5793897113  MEOH      2850            0.0000000000
     45120      3542  MEOH      LP1B            1.8218263894      -28.1677465379      -29.0976219606  MEOH      2850            0.0000000000
     45121      3543  MEOH      C1             25.7109325638       27.1698399635      -23.4808572846  MEOH      2851            0.0000000000
     45122      3543  MEOH      DC1            25.7016376358       27.1773433081      -23.4753683405  MEOH      2851            0.0000000000
     45123      3543  MEOH      O1             24.8119959440       26.1019268118      -23.1965480474  MEOH      2851            0.0000000000
     45124      3543  MEOH      DO1            24.8113578809       26.1012653424      -23.1955044199  MEOH      2851            0.0000000000
     45125      3543  MEOH      HO1            25.3395163031       25.2889305792      -23.1558123558  MEOH      2851            0.0000000000
     45126      3543  MEOH      HO2            24.2834510097       26.3846772275      -22.4339259547  MEOH      2851            0.0000000000
     45127      3543  MEOH      H1A            25.1331175833       28.1097396608      -23.6113923732  MEOH      2851            0.0000000000
     45128      3543  MEOH      H1B            26.2818202923       26.9608530376      -24.4107673162  MEOH      2851            0.0000000000
     45129      3543  MEOH      H1C            26.4276772276       27.2820548559      -22.6394264171  MEOH      2851            0.0000000000
     45130      3543  MEOH      LP1A           24.7787913468       26.0623523386      -22.8503814462  MEOH      2851            0.0000000000
     45131      3543  MEOH      LP1B           24.6853680467       25.9694480552      -23.4947338194  MEOH      2851            0.0000000000
     45132      3544  MEOH      C1            -29.2550579799      -18.4231163209        3.6311241780  MEOH      2852            0.0000000000
     45133      3544  MEOH      DC1           -29.2605303574      -18.4335073014        3.6138615948  MEOH      2852            0.0000000000
     45134      3544  MEOH      O1            -28.0781626431      -17.6079454398        3.6769734518  MEOH      2852            0.0000000000
     45135      3544  MEOH      DO1           -28.0775374675      -17.6262436960        3.6524428160  MEOH      2852            0.0000000000
     45136      3544  MEOH      HO1           -28.0612892855      -17.1550618120        4.5345932449  MEOH      2852            0.0000000000
     45137      3544  MEOH      HO2           -27.3414153026      -18.1816823899        3.4144296083  MEOH      2852            0.0000000000
     45138      3544  MEOH      H1A           -29.3558264290      -18.8806145019        2.6237205176  MEOH      2852            0.0000000000
     45139      3544  MEOH      H1B           -30.1572829676      -17.8083189181        3.8368794331  MEOH      2852            0.0000000000
     45140      3544  MEOH      H1C           -29.1913099830      -19.2283236237        4.3939468276  MEOH      2852            0.0000000000
     45141      3544  MEOH      LP1A          -27.8096121702      -17.7925052172        3.8047166789  MEOH      2852            0.0000000000
     45142      3544  MEOH      LP1B          -28.1471536320      -17.2906506733        3.5463431544  MEOH      2852            0.0000000000
     45143      3545  MEOH      C1             22.2279666638      -19.7907409476       35.1803075687  MEOH      2853            0.0000000000
     45144      3545  MEOH      DC1            22.2390182502      -19.7872384364       35.1602490903  MEOH      2853            0.0000000000
     45145      3545  MEOH      O1             22.3125075285      -18.4975143749       35.7707298544  MEOH      2853            0.0000000000
     45146      3545  MEOH      DO1            22.3196616663      -18.4978603874       35.7588727359  MEOH      2853            0.0000000000
     45147      3545  MEOH      HO1            22.4839872764      -18.6449623654       36.7139974659  MEOH      2853            0.0000000000
     45148      3545  MEOH      HO2            22.9275643082      -17.9837130143       35.2242746234  MEOH      2853            0.0000000000
     45149      3545  MEOH      H1A            22.0303248410      -19.7023495829       34.0906077582  MEOH      2853            0.0000000000
     45150      3545  MEOH      H1B            21.3879163187      -20.3506333386       35.6441576826  MEOH      2853            0.0000000000
     45151      3545  MEOH      H1C            23.1703526607      -20.3490744376       35.3660314185  MEOH      2853            0.0000000000
     45152      3545  MEOH      LP1A           22.6422982732      -18.3810849175       35.7572299946  MEOH      2853            0.0000000000
     45153      3545  MEOH      LP1B           21.9950132053      -18.3917337713       35.8732375059  MEOH      2853            0.0000000000
     45154      3546  MEOH      C1              5.0027226717       18.6173944121       15.6400779367  MEOH      2854            0.0000000000
     45155      3546  MEOH      DC1             5.0050977649       18.6242625072       15.6380529211  MEOH      2854            0.0000000000
     45156      3546  MEOH      O1              4.4870657979       17.3701009259       15.1701121782  MEOH      2854            0.0000000000
     45157      3546  MEOH      DO1             4.4915289798       17.3802980149       15.1619424237  MEOH      2854            0.0000000000
     45158      3546  MEOH      HO1             4.8396101538       16.6675586438       15.7384842572  MEOH      2854            0.0000000000
     45159      3546  MEOH      HO2             3.5262510621       17.4927826858       15.1183026304  MEOH      2854            0.0000000000
     45160      3546  MEOH      H1A             4.6294851785       19.4356654116       14.9878146873  MEOH      2854            0.0000000000
     45161      3546  MEOH      H1B             6.1128217347       18.6248612979       15.5959721967  MEOH      2854            0.0000000000
     45162      3546  MEOH      H1C             4.6636797270       18.8013091082       16.6819734527  MEOH      2854            0.0000000000
     45163      3546  MEOH      LP1A            4.1819056140       17.3001423004       15.3265827916  MEOH      2854            0.0000000000
     45164      3546  MEOH      LP1B            4.7001146875       17.2366059646       14.9266183057  MEOH      2854            0.0000000000
     45165      3547  MEOH      C1             21.5975564381       29.9041537115       -0.1116871990  MEOH      2855            0.0000000000
     45166      3547  MEOH      DC1            21.6040646167       29.9153165292       -0.1096241288  MEOH      2855            0.0000000000
     45167      3547  MEOH      O1             22.3409632413       30.0611112243        1.0975905450  MEOH      2855            0.0000000000
     45168      3547  MEOH      DO1            22.3486206347       30.0709689344        1.1100956254  MEOH      2855            0.0000000000
     45169      3547  MEOH      HO1            22.0821560432       29.2974063517        1.6367321808  MEOH      2855            0.0000000000
     45170      3547  MEOH      HO2            23.2661972135       30.1559780706        0.8221955956  MEOH      2855            0.0000000000
     45171      3547  MEOH      H1A            21.8448214031       30.7219547089       -0.8218861622  MEOH      2855            0.0000000000
     45172      3547  MEOH      H1B            20.5069057168       29.9223805124        0.0991914113  MEOH      2855            0.0000000000
     45173      3547  MEOH      H1C            21.8557894669       28.9285641483       -0.5762963971  MEOH      2855            0.0000000000
     45174      3547  MEOH      LP1A           22.6524598434       29.9043192777        1.0678222340  MEOH      2855            0.0000000000
     45175      3547  MEOH      LP1B           22.1587608861       30.2538574394        1.3259569137  MEOH      2855            0.0000000000
     45176      3548  MEOH      C1            -18.7872887930       -7.2626116048      -36.6341373419  MEOH      2856            0.0000000000
     45177      3548  MEOH      DC1           -18.7870171496       -7.2713739133      -36.6174690274  MEOH      2856            0.0000000000
     45178      3548  MEOH      O1            -17.5330966286       -7.6698606770      -37.1842805441  MEOH      2856            0.0000000000
     45179      3548  MEOH      DO1           -17.5437825712       -7.6804629520      -37.1752161411  MEOH      2856            0.0000000000
     45180      3548  MEOH      HO1           -16.8308406375       -7.5195744706      -36.5322448245  MEOH      2856            0.0000000000
     45181      3548  MEOH      HO2           -17.6700546241       -8.5606411121      -37.5429624699  MEOH      2856            0.0000000000
     45182      3548  MEOH      H1A           -19.5706113015       -7.3599279321      -37.4159662115  MEOH      2856            0.0000000000
     45183      3548  MEOH      H1B           -18.7437621476       -6.1986021347      -36.3174193614  MEOH      2856            0.0000000000
     45184      3548  MEOH      H1C           -19.0537386247       -7.9075232117      -35.7696059622  MEOH      2856            0.0000000000
     45185      3548  MEOH      LP1A          -17.4766545497       -8.0084376288      -37.1158704613  MEOH      2856            0.0000000000
     45186      3548  MEOH      LP1B          -17.3846441395       -7.4025625960      -37.3546143175  MEOH      2856            0.0000000000
     45187      3549  MEOH      C1             19.0973839153        9.9548410516      -30.2521553703  MEOH      2857            0.0000000000
     45188      3549  MEOH      DC1            19.0962289863        9.9399993486      -30.2379784418  MEOH      2857            0.0000000000
     45189      3549  MEOH      O1             18.9268238895        8.8454308266      -31.1316268959  MEOH      2857            0.0000000000
     45190      3549  MEOH      DO1            18.9263635324        8.8311578655      -31.1216036430  MEOH      2857            0.0000000000
     45191      3549  MEOH      HO1            18.0210734206        8.9200548025      -31.4706657586  MEOH      2857            0.0000000000
     45192      3549  MEOH      HO2            19.6513036214        8.9122351367      -31.7731612309  MEOH      2857            0.0000000000
     45193      3549  MEOH      H1A            20.1544752434       10.0043138957      -29.9138783215  MEOH      2857            0.0000000000
     45194      3549  MEOH      H1B            18.4319601688        9.8504377434      -29.3686214499  MEOH      2857            0.0000000000
     45195      3549  MEOH      H1C            18.8647045330       10.8980662168      -30.7911429336  MEOH      2857            0.0000000000
     45196      3549  MEOH      LP1A           19.0268731294        8.9328721830      -31.4554233733  MEOH      2857            0.0000000000
     45197      3549  MEOH      LP1B           18.8088816944        8.5683274416      -30.9532919507  MEOH      2857            0.0000000000
     45198      3550  MEOH      C1             20.3408574898      -12.1117341785       32.7186516334  MEOH      2858            0.0000000000
     45199      3550  MEOH      DC1            20.3755246004      -12.1458591069       32.7063639500  MEOH      2858            0.0000000000
     45200      3550  MEOH      O1             19.5916712090      -11.8894253103       33.9040518692  MEOH      2858            0.0000000000
     45201      3550  MEOH      DO1            19.6034707348      -11.9121575292       33.8892151706  MEOH      2858            0.0000000000
     45202      3550  MEOH      HO1            19.1896148401      -11.0090862454       33.8388306532  MEOH      2858            0.0000000000
     45203      3550  MEOH      HO2            19.0353465196      -12.6758852620       34.0175577514  MEOH      2858            0.0000000000
     45204      3550  MEOH      H1A            20.8040704481      -13.1191723471       32.7881001158  MEOH      2858            0.0000000000
     45205      3550  MEOH      H1B            21.1061971871      -11.3128047437       32.6172223078  MEOH      2858            0.0000000000
     45206      3550  MEOH      H1C            19.6610569832      -12.0849616953       31.8403148494  MEOH      2858            0.0000000000
     45207      3550  MEOH      LP1A           19.2647901399      -12.0075924858       33.8629996427  MEOH      2858            0.0000000000
     45208      3550  MEOH      LP1B           19.7952800386      -11.7441355382       34.1488667516  MEOH      2858            0.0000000000
     45209      3551  MEOH      C1            -29.9988934747        4.3370330820       34.8896870608  MEOH      2859            0.0000000000
     45210      3551  MEOH      DC1           -30.0070788520        4.3349085313       34.8918568350  MEOH      2859            0.0000000000
     45211      3551  MEOH      O1            -29.0940485625        3.7814108000       33.9338090740  MEOH      2859            0.0000000000
     45212      3551  MEOH      DO1           -29.1018663517        3.7795312493       33.9331883422  MEOH      2859            0.0000000000
     45213      3551  MEOH      HO1           -28.2858187538        4.3174857008       33.9507877979  MEOH      2859            0.0000000000
     45214      3551  MEOH      HO2           -29.0500411847        2.8329481764       34.1322580699  MEOH      2859            0.0000000000
     45215      3551  MEOH      H1A           -30.9582902454        3.7775137993       34.8611036555  MEOH      2859            0.0000000000
     45216      3551  MEOH      H1B           -30.1984110578        5.4030735169       34.6487067168  MEOH      2859            0.0000000000
     45217      3551  MEOH      H1C           -29.5642996847        4.2610042313       35.9093285917  MEOH      2859            0.0000000000
     45218      3551  MEOH      LP1A          -28.8969403737        3.5347603963       34.0848452956  MEOH      2859            0.0000000000
     45219      3551  MEOH      LP1B          -29.1472620774        3.9268897451       33.6199552890  MEOH      2859            0.0000000000
     45220      3552  MEOH      C1             16.2397831592      -26.0717051903      -31.6833996966  MEOH      2860            0.0000000000
     45221      3552  MEOH      DC1            16.2305540152      -26.0552761845      -31.6676175355  MEOH      2860            0.0000000000
     45222      3552  MEOH      O1             16.2658817246      -24.9839456554      -30.7677304640  MEOH      2860            0.0000000000
     45223      3552  MEOH      DO1            16.2570774305      -24.9766200368      -30.7585688553  MEOH      2860            0.0000000000
     45224      3552  MEOH      HO1            16.5126732286      -24.1934897320      -31.2728773608  MEOH      2860            0.0000000000
     45225      3552  MEOH      HO2            15.4207438152      -25.0211251538      -30.2931152525  MEOH      2860            0.0000000000
     45226      3552  MEOH      H1A            15.9878141733      -27.0085563816      -31.1419733622  MEOH      2860            0.0000000000
     45227      3552  MEOH      H1B            17.2275381996      -26.2055232694      -32.1740662874  MEOH      2860            0.0000000000
     45228      3552  MEOH      H1C            15.4728313240      -25.8894872676      -32.4662806018  MEOH      2860            0.0000000000
     45229      3552  MEOH      LP1A           15.9491485374      -24.8363048727      -30.7481782928  MEOH      2860            0.0000000000
     45230      3552  MEOH      LP1B           16.5840186530      -24.9555544427      -30.6246122130  MEOH      2860            0.0000000000
     45231      3553  MEOH      C1             10.3324110489       35.3344979340       27.7347952986  MEOH      2861            0.0000000000
     45232      3553  MEOH      DC1            10.3122929743       35.3266428417       27.7464879765  MEOH      2861            0.0000000000
     45233      3553  MEOH      O1              9.1954295386       36.2013462207       27.6397090789  MEOH      2861            0.0000000000
     45234      3553  MEOH      DO1             9.1714925609       36.1831826356       27.6503025455  MEOH      2861            0.0000000000
     45235      3553  MEOH      HO1             9.5209970994       36.9520037064       27.1187300942  MEOH      2861            0.0000000000
     45236      3553  MEOH      HO2             8.4603271796       35.6606686910       27.3107830504  MEOH      2861            0.0000000000
     45237      3553  MEOH      H1A            10.1205847485       34.5009372291       28.4380926542  MEOH      2861            0.0000000000
     45238      3553  MEOH      H1B            11.2065581111       35.9101981368       28.1072965604  MEOH      2861            0.0000000000
     45239      3553  MEOH      H1C            10.6008122205       34.9396045869       26.7316297802  MEOH      2861            0.0000000000
     45240      3553  MEOH      LP1A            9.0047375319       36.1182292785       27.3582341555  MEOH      2861            0.0000000000
     45241      3553  MEOH      LP1B            9.1899566622       36.4218518038       27.9114577411  MEOH      2861            0.0000000000
     45242      3554  MEOH      C1              0.0273593804       19.0998353242       34.9968101963  MEOH      2862            0.0000000000
     45243      3554  MEOH      DC1             0.0232621397       19.1083585146       34.9933650938  MEOH      2862            0.0000000000
     45244      3554  MEOH      O1             -0.8121418301       18.0789668380       35.5403038893  MEOH      2862            0.0000000000
     45245      3554  MEOH      DO1            -0.8236081876       18.0903965467       35.5302415034  MEOH      2862            0.0000000000
     45246      3554  MEOH      HO1            -0.8921708946       17.3822003948       34.8702204076  MEOH      2862            0.0000000000
     45247      3554  MEOH      HO2            -0.4032026767       17.8422418479       36.3874343685  MEOH      2862            0.0000000000
     45248      3554  MEOH      H1A             0.2423174807       19.8643131437       35.7737836060  MEOH      2862            0.0000000000
     45249      3554  MEOH      H1B            -0.4766968023       19.5829432404       34.1326024053  MEOH      2862            0.0000000000
     45250      3554  MEOH      H1C             0.9860973026       18.6527480248       34.6573171257  MEOH      2862            0.0000000000
     45251      3554  MEOH      LP1A           -0.6188381663       17.8458417658       35.7157644098  MEOH      2862            0.0000000000
     45252      3554  MEOH      LP1B           -1.1472051264       18.1471405336       35.4655714685  MEOH      2862            0.0000000000
     45253      3555  MEOH      C1              5.3563299443       -8.0504003821       10.8672983563  MEOH      2863            0.0000000000
     45254      3555  MEOH      DC1             5.3602949146       -8.0553488471       10.8643850917  MEOH      2863            0.0000000000
     45255      3555  MEOH      O1              5.5519869057       -7.9775653381       12.2798518485  MEOH      2863            0.0000000000
     45256      3555  MEOH      DO1             5.5547598924       -7.9862132205       12.2758591832  MEOH      2863            0.0000000000
     45257      3555  MEOH      HO1             4.8417114856       -7.4345998254       12.6561459890  MEOH      2863            0.0000000000
     45258      3555  MEOH      HO2             5.7347277961       -8.8792043379       12.5873463703  MEOH      2863            0.0000000000
     45259      3555  MEOH      H1A             6.2826677461       -8.4329271225       10.3878272190  MEOH      2863            0.0000000000
     45260      3555  MEOH      H1B             5.1348014134       -7.0415393488       10.4580972737  MEOH      2863            0.0000000000
     45261      3555  MEOH      H1C             4.5155565439       -8.7380276895       10.6336538073  MEOH      2863            0.0000000000
     45262      3555  MEOH      LP1A            5.3882606219       -8.2438616226       12.4372684705  MEOH      2863            0.0000000000
     45263      3555  MEOH      LP1B            5.7578830000       -7.7056281642       12.3583182222  MEOH      2863            0.0000000000
     45264      3556  MEOH      C1             17.7277566259      -24.5868863313       25.0704059707  MEOH      2864            0.0000000000
     45265      3556  MEOH      DC1            17.7305986837      -24.5743561992       25.0602859601  MEOH      2864            0.0000000000
     45266      3556  MEOH      O1             18.6894569701      -24.8609873052       24.0472847603  MEOH      2864            0.0000000000
     45267      3556  MEOH      DO1            18.6845742459      -24.8343048113       24.0331489775  MEOH      2864            0.0000000000
     45268      3556  MEOH      HO1            18.5836034029      -25.7904008979       23.7906032524  MEOH      2864            0.0000000000
     45269      3556  MEOH      HO2            18.6397013872      -24.1347636920       23.4061735019  MEOH      2864            0.0000000000
     45270      3556  MEOH      H1A            17.9735389885      -23.6223675594       25.5639802498  MEOH      2864            0.0000000000
     45271      3556  MEOH      H1B            17.7372066101      -25.3914891611       25.8364647055  MEOH      2864            0.0000000000
     45272      3556  MEOH      H1C            16.7077845260      -24.5229015719       24.6346493110  MEOH      2864            0.0000000000
     45273      3556  MEOH      LP1A           18.5530997338      -24.7902972475       23.7327857621  MEOH      2864            0.0000000000
     45274      3556  MEOH      LP1B           18.9904857113      -24.9667086614       24.1911760102  MEOH      2864            0.0000000000
     45275      3557  MEOH      C1             10.7779796268        7.9891492378      -26.8109441166  MEOH      2865            0.0000000000
     45276      3557  MEOH      DC1            10.7650486597        8.0047416011      -26.7874344826  MEOH      2865            0.0000000000
     45277      3557  MEOH      O1             10.3795147754        8.9011461265      -25.8061661052  MEOH      2865            0.0000000000
     45278      3557  MEOH      DO1            10.3704400813        8.9084521109      -25.7913794442  MEOH      2865            0.0000000000
     45279      3557  MEOH      HO1            10.0212370421        8.3705279854      -25.0774813625  MEOH      2865            0.0000000000
     45280      3557  MEOH      HO2            11.1412782398        9.4841345872      -25.6621491611  MEOH      2865            0.0000000000
     45281      3557  MEOH      H1A            11.0910669051        8.5276475046      -27.7308989920  MEOH      2865            0.0000000000
     45282      3557  MEOH      H1B             9.9301984813        7.3102362822      -27.0447502959  MEOH      2865            0.0000000000
     45283      3557  MEOH      H1C            11.6255450411        7.3687986021      -26.4488405987  MEOH      2865            0.0000000000
     45284      3557  MEOH      LP1A           10.6470495955        8.9653028401      -25.5898121449  MEOH      2865            0.0000000000
     45285      3557  MEOH      LP1B           10.0479867470        9.0001320414      -25.8589955955  MEOH      2865            0.0000000000
     45286      3558  MEOH      C1            -29.7382852562       -7.3157856659       28.3179532969  MEOH      2866            0.0000000000
     45287      3558  MEOH      DC1           -29.7312181203       -7.3073295691       28.3146725380  MEOH      2866            0.0000000000
     45288      3558  MEOH      O1            -30.5268181879       -6.2064596188       27.8784171893  MEOH      2866            0.0000000000
     45289      3558  MEOH      DO1           -30.5161841511       -6.2005826776       27.8787206007  MEOH      2866            0.0000000000
     45290      3558  MEOH      HO1           -31.1893794945       -6.0165792467       28.5609550711  MEOH      2866            0.0000000000
     45291      3558  MEOH      HO2           -29.9085439663       -5.5246063454       27.5722912339  MEOH      2866            0.0000000000
     45292      3558  MEOH      H1A           -29.0921934494       -7.6691649753       27.4860822484  MEOH      2866            0.0000000000
     45293      3558  MEOH      H1B           -30.3976644292       -8.1558481231       28.6242785724  MEOH      2866            0.0000000000
     45294      3558  MEOH      H1C           -29.0988052424       -7.0204233875       29.1771083692  MEOH      2866            0.0000000000
     45295      3558  MEOH      LP1A          -30.3799942921       -5.9063896011       27.9828237413  MEOH      2866            0.0000000000
     45296      3558  MEOH      LP1B          -30.7994641140       -6.3202740281       27.6907726339  MEOH      2866            0.0000000000
     45297      3559  MEOH      C1              2.2537373345      -14.2940119760      -12.8954388905  MEOH      2867            0.0000000000
     45298      3559  MEOH      DC1             2.2331913562      -14.2865196933      -12.8837945955  MEOH      2867            0.0000000000
     45299      3559  MEOH      O1              1.7384823721      -12.9698776443      -13.0688486604  MEOH      2867            0.0000000000
     45300      3559  MEOH      DO1             1.7151273088      -12.9727018096      -13.0582103916  MEOH      2867            0.0000000000
     45301      3559  MEOH      HO1             2.0972188744      -12.4209632223      -12.3540752143  MEOH      2867            0.0000000000
     45302      3559  MEOH      HO2             1.9871329264      -12.7303764784      -13.9753320275  MEOH      2867            0.0000000000
     45303      3559  MEOH      H1A             1.9476284269      -14.9347614992      -13.7498734320  MEOH      2867            0.0000000000
     45304      3559  MEOH      H1B             1.8820173672      -14.7413940824      -11.9488690216  MEOH      2867            0.0000000000
     45305      3559  MEOH      H1C             3.3644568629      -14.2792616310      -12.8753004214  MEOH      2867            0.0000000000
     45306      3559  MEOH      LP1A            1.9512219876      -12.7848500689      -13.2762291135  MEOH      2867            0.0000000000
     45307      3559  MEOH      LP1B            1.4338045527      -12.9368908482      -12.8997827041  MEOH      2867            0.0000000000
     45308      3560  MEOH      C1            -28.0271800366      -21.2356185878      -21.0201082298  MEOH      2868            0.0000000000
     45309      3560  MEOH      DC1           -28.0288252823      -21.2260015347      -21.0159772458  MEOH      2868            0.0000000000
     45310      3560  MEOH      O1            -26.8322100201      -22.0113394102      -21.0756756696  MEOH      2868            0.0000000000
     45311      3560  MEOH      DO1           -26.8287741195      -22.0066774557      -21.0715253337  MEOH      2868            0.0000000000
     45312      3560  MEOH      HO1           -26.8214959714      -22.4188789640      -21.9558442450  MEOH      2868            0.0000000000
     45313      3560  MEOH      HO2           -26.1160763381      -21.4178844283      -20.8002419488  MEOH      2868            0.0000000000
     45314      3560  MEOH      H1A           -28.1355338910      -20.7660607762      -20.0190608264  MEOH      2868            0.0000000000
     45315      3560  MEOH      H1B           -28.9017150334      -21.8901892403      -21.2227083318  MEOH      2868            0.0000000000
     45316      3560  MEOH      H1C           -27.9909058060      -20.4467455695      -21.8015713075  MEOH      2868            0.0000000000
     45317      3560  MEOH      LP1A          -26.5674101568      -21.8150168609      -21.1933127770  MEOH      2868            0.0000000000
     45318      3560  MEOH      LP1B          -26.8937488194      -22.3346814897      -20.9566677883  MEOH      2868            0.0000000000
     45319      3561  MEOH      C1            -32.3955950437      -27.9571838812      -26.4334845181  MEOH      2869            0.0000000000
     45320      3561  MEOH      DC1           -32.4088501027      -27.9609639846      -26.4394977624  MEOH      2869            0.0000000000
     45321      3561  MEOH      O1            -31.0916386186      -27.7932555596      -25.8713389311  MEOH      2869            0.0000000000
     45322      3561  MEOH      DO1           -31.0983051918      -27.7857991549      -25.8757787810  MEOH      2869            0.0000000000
     45323      3561  MEOH      HO1           -30.4399727800      -28.1076651687      -26.5173870980  MEOH      2869            0.0000000000
     45324      3561  MEOH      HO2           -31.0585506969      -26.8937099968      -25.5099209322  MEOH      2869            0.0000000000
     45325      3561  MEOH      H1A           -33.1610841027      -27.7764547321      -25.6488288769  MEOH      2869            0.0000000000
     45326      3561  MEOH      H1B           -32.5151134958      -28.9947726905      -26.8122269168  MEOH      2869            0.0000000000
     45327      3561  MEOH      H1C           -32.5413253958      -27.2290910620      -27.2599011877  MEOH      2869            0.0000000000
     45328      3561  MEOH      LP1A          -30.9670736415      -27.4754228820      -25.9485785296  MEOH      2869            0.0000000000
     45329      3561  MEOH      LP1B          -31.0024623409      -28.0792774517      -25.6903995249  MEOH      2869            0.0000000000
     45330      3562  MEOH      C1              2.5943452927       -3.7381712793      -17.3708375345  MEOH      2870            0.0000000000
     45331      3562  MEOH      DC1             2.5962345391       -3.7434652007      -17.3773160898  MEOH      2870            0.0000000000
     45332      3562  MEOH      O1              1.5822095596       -4.6476952027      -16.9571716408  MEOH      2870            0.0000000000
     45333      3562  MEOH      DO1             1.5836178496       -4.6548797583      -16.9668663473  MEOH      2870            0.0000000000
     45334      3562  MEOH      HO1             0.9520397973       -4.7442989262      -17.6882351078  MEOH      2870            0.0000000000
     45335      3562  MEOH      HO2             2.0427242809       -5.4111800523      -16.5751807039  MEOH      2870            0.0000000000
     45336      3562  MEOH      H1A             3.2679699979       -3.5090888809      -16.5175661759  MEOH      2870            0.0000000000
     45337      3562  MEOH      H1B             2.1439590372       -2.7870560354      -17.7270018432  MEOH      2870            0.0000000000
     45338      3562  MEOH      H1C             3.1741588888       -4.1906414903      -18.2035487104  MEOH      2870            0.0000000000
     45339      3562  MEOH      LP1A            1.6761544812       -4.9754281643      -17.0363262841  MEOH      2870            0.0000000000
     45340      3562  MEOH      LP1B            1.3230884789       -4.4742329024      -16.7982153703  MEOH      2870            0.0000000000
     45341      3563  MEOH      C1             13.8708941199      -31.3432247596      -20.0763608076  MEOH      2871            0.0000000000
     45342      3563  MEOH      DC1            13.8625158566      -31.3391097388      -20.0620299497  MEOH      2871            0.0000000000
     45343      3563  MEOH      O1             14.1278145175      -32.7084585383      -20.4046861729  MEOH      2871            0.0000000000
     45344      3563  MEOH      DO1            14.1267680552      -32.7095822615      -20.3922093491  MEOH      2871            0.0000000000
     45345      3563  MEOH      HO1            15.0596019984      -32.7698694093      -20.6671757829  MEOH      2871            0.0000000000
     45346      3563  MEOH      HO2            13.7652833484      -33.2378777283      -19.6772341308  MEOH      2871            0.0000000000
     45347      3563  MEOH      H1A            12.7783096588      -31.1670479195      -19.9786780736  MEOH      2871            0.0000000000
     45348      3563  MEOH      H1B            14.2772241925      -30.6738385132      -20.8644844824  MEOH      2871            0.0000000000
     45349      3563  MEOH      H1C            14.3455389791      -31.1025127161      -19.1011218778  MEOH      2871            0.0000000000
     45350      3563  MEOH      LP1A           14.2279862112      -32.8835560757      -20.1186678445  MEOH      2871            0.0000000000
     45351      3563  MEOH      LP1B           14.0598289989      -32.7649745675      -20.7433362987  MEOH      2871            0.0000000000
     45352      3564  MEOH      C1             22.7286054927        1.2029823399       -6.1999731912  MEOH      2872            0.0000000000
     45353      3564  MEOH      DC1            22.7033761492        1.2082978721       -6.1792382463  MEOH      2872            0.0000000000
     45354      3564  MEOH      O1             21.3963705143        1.6988317962       -6.3365347217  MEOH      2872            0.0000000000
     45355      3564  MEOH      DO1            21.3828327762        1.7084542890       -6.3219672568  MEOH      2872            0.0000000000
     45356      3564  MEOH      HO1            20.8561521712        1.3350760169       -5.6176843375  MEOH      2872            0.0000000000
     45357      3564  MEOH      HO2            21.4824590005        2.6536201036       -6.4844132587  MEOH      2872            0.0000000000
     45358      3564  MEOH      H1A            23.3351443613        1.4549025485       -7.0960579033  MEOH      2872            0.0000000000
     45359      3564  MEOH      H1B            22.7265324403        0.0971511318       -6.0929496322  MEOH      2872            0.0000000000
     45360      3564  MEOH      H1C            23.2088522484        1.6662514820       -5.3116794585  MEOH      2872            0.0000000000
     45361      3564  MEOH      LP1A           21.3630940900        2.0016461478       -6.1642090184  MEOH      2872            0.0000000000
     45362      3564  MEOH      LP1B           21.2094450109        1.4850270515       -6.5410986172  MEOH      2872            0.0000000000
     45363      3565  MEOH      C1             -0.5975265548        5.4468816262      -24.4492732892  MEOH      2873            0.0000000000
     45364      3565  MEOH      DC1            -0.5837417772        5.4524549966      -24.4480363560  MEOH      2873            0.0000000000
     45365      3565  MEOH      O1             -0.5554657746        6.1077527315      -25.7147678426  MEOH      2873            0.0000000000
     45366      3565  MEOH      DO1            -0.5464871295        6.1084318637      -25.7065400190  MEOH      2873            0.0000000000
     45367      3565  MEOH      HO1             0.3065770227        6.5398166213      -25.8201386676  MEOH      2873            0.0000000000
     45368      3565  MEOH      HO2            -0.8406729586        5.4480255259      -26.3661639409  MEOH      2873            0.0000000000
     45369      3565  MEOH      H1A            -1.6142016522        5.0290840873      -24.2876008956  MEOH      2873            0.0000000000
     45370      3565  MEOH      H1B            -0.3807778528        6.1566941766      -23.6225283800  MEOH      2873            0.0000000000
     45371      3565  MEOH      H1C             0.1274164400        4.6050611335      -24.4384606577  MEOH      2873            0.0000000000
     45372      3565  MEOH      LP1A           -0.4373756593        5.8883211430      -25.9605411175  MEOH      2873            0.0000000000
     45373      3565  MEOH      LP1B           -0.6771897119        6.4343955021      -25.6833388188  MEOH      2873            0.0000000000
     45374      3566  MEOH      C1             24.3357594278        4.1605042602      -19.7810465752  MEOH      2874            0.0000000000
     45375      3566  MEOH      DC1            24.3319965376        4.1684593435      -19.7754095726  MEOH      2874            0.0000000000
     45376      3566  MEOH      O1             24.4855799012        3.0810029837      -18.8553699826  MEOH      2874            0.0000000000
     45377      3566  MEOH      DO1            24.4836497055        3.0804679837      -18.8570717223  MEOH      2874            0.0000000000
     45378      3566  MEOH      HO1            24.5449183584        3.4532275205      -17.9615982882  MEOH      2874            0.0000000000
     45379      3566  MEOH      HO2            23.7999734895        2.4315736909      -19.0769223307  MEOH      2874            0.0000000000
     45380      3566  MEOH      H1A            24.3933963704        3.7666445174      -20.8182897903  MEOH      2874            0.0000000000
     45381      3566  MEOH      H1B            25.1476971869        4.9044312326      -19.6339046864  MEOH      2874            0.0000000000
     45382      3566  MEOH      H1C            23.3509465954        4.6533640310      -19.6342340024  MEOH      2874            0.0000000000
     45383      3566  MEOH      LP1A           24.1710660594        2.9671661482      -18.7523058365  MEOH      2874            0.0000000000
     45384      3566  MEOH      LP1B           24.8248358202        3.0065989638      -18.8121326926  MEOH      2874            0.0000000000
     45385      3567  MEOH      C1            -33.0918666423       14.3571605727       24.2254232163  MEOH      2875            0.0000000000
     45386      3567  MEOH      DC1           -33.0967663293       14.3642553388       24.2276578840  MEOH      2875            0.0000000000
     45387      3567  MEOH      O1            -32.2232692818       13.7785623836       25.2046892362  MEOH      2875            0.0000000000
     45388      3567  MEOH      DO1           -32.2390308042       13.7982208814       25.2186429203  MEOH      2875            0.0000000000
     45389      3567  MEOH      HO1           -31.3950043318       14.2794426482       25.2679042117  MEOH      2875            0.0000000000
     45390      3567  MEOH      HO2           -32.7520387956       13.4720176358       25.9579044243  MEOH      2875            0.0000000000
     45391      3567  MEOH      H1A           -33.7514068101       13.5699604306       23.8015792554  MEOH      2875            0.0000000000
     45392      3567  MEOH      H1B           -32.5079357515       14.7844033557       23.3823281324  MEOH      2875            0.0000000000
     45393      3567  MEOH      H1C           -33.7242492850       15.1442589407       24.6889848117  MEOH      2875            0.0000000000
     45394      3567  MEOH      LP1A          -32.2880396719       13.9176513588       25.5192668157  MEOH      2875            0.0000000000
     45395      3567  MEOH      LP1B          -32.0210370359       13.5345854824       25.0561046125  MEOH      2875            0.0000000000
     45396      3568  MEOH      C1             -5.6571754076       17.6260390652       -0.5413751962  MEOH      2876            0.0000000000
     45397      3568  MEOH      DC1            -5.6572117125       17.6303027112       -0.5341316831  MEOH      2876            0.0000000000
     45398      3568  MEOH      O1             -6.7256236915       17.7333468620       -1.4856864203  MEOH      2876            0.0000000000
     45399      3568  MEOH      DO1            -6.7255683611       17.7325817015       -1.4816114015  MEOH      2876            0.0000000000
     45400      3568  MEOH      HO1            -6.3502389788       17.5869567810       -2.3680447728  MEOH      2876            0.0000000000
     45401      3568  MEOH      HO2            -7.4313611645       17.1551091607       -1.1563298049  MEOH      2876            0.0000000000
     45402      3568  MEOH      H1A            -6.0382614416       17.8600625063        0.4756437140  MEOH      2876            0.0000000000
     45403      3568  MEOH      H1B            -4.8466395652       18.3403877957       -0.8003318344  MEOH      2876            0.0000000000
     45404      3568  MEOH      H1C            -5.2484577762       16.5929511756       -0.5419326246  MEOH      2876            0.0000000000
     45405      3568  MEOH      LP1A           -6.8766360169       17.4209564119       -1.5315937646  MEOH      2876            0.0000000000
     45406      3568  MEOH      LP1B           -6.7608543453       18.0657908522       -1.5893193998  MEOH      2876            0.0000000000
     45407      3569  MEOH      C1            -31.1364420101       -2.3448531098       35.9311423777  MEOH      2877            0.0000000000
     45408      3569  MEOH      DC1           -31.1413917882       -2.3533151525       35.9325050265  MEOH      2877            0.0000000000
     45409      3569  MEOH      O1            -31.8953121446       -3.5413547362       36.1351183937  MEOH      2877            0.0000000000
     45410      3569  MEOH      DO1           -31.9048270301       -3.5473053438       36.1293930722  MEOH      2877            0.0000000000
     45411      3569  MEOH      HO1           -31.8645534218       -3.7136540839       37.0891974453  MEOH      2877            0.0000000000
     45412      3569  MEOH      HO2           -32.7537692946       -3.3862939259       35.7109633905  MEOH      2877            0.0000000000
     45413      3569  MEOH      H1A           -30.9130116011       -2.2164485255       34.8504425510  MEOH      2877            0.0000000000
     45414      3569  MEOH      H1B           -30.1870047274       -2.3968169900       36.5057636454  MEOH      2877            0.0000000000
     45415      3569  MEOH      H1C           -31.7056774074       -1.4540205653       36.2727700133  MEOH      2877            0.0000000000
     45416      3569  MEOH      LP1A          -32.2321028997       -3.4619866542       36.1877747784  MEOH      2877            0.0000000000
     45417      3569  MEOH      LP1B          -31.6875400532       -3.8214296754       36.1053058722  MEOH      2877            0.0000000000
     45418      3570  MEOH      C1             27.3277454388       10.3796061697      -23.8018306994  MEOH      2878            0.0000000000
     45419      3570  MEOH      DC1            27.3281763286       10.3874761631      -23.7907693571  MEOH      2878            0.0000000000
     45420      3570  MEOH      O1             28.1980534518        9.2461918204      -23.8129573408  MEOH      2878            0.0000000000
     45421      3570  MEOH      DO1            28.1920097936        9.2429366493      -23.7986417509  MEOH      2878            0.0000000000
     45422      3570  MEOH      HO1            27.7885948157        8.5913174317      -24.3997990233  MEOH      2878            0.0000000000
     45423      3570  MEOH      HO2            29.0644865519        9.6019431611      -24.0652164683  MEOH      2878            0.0000000000
     45424      3570  MEOH      H1A            27.7715812782       11.1869048427      -23.1808640334  MEOH      2878            0.0000000000
     45425      3570  MEOH      H1B            26.3395436697       10.1003932474      -23.3777806909  MEOH      2878            0.0000000000
     45426      3570  MEOH      H1C            27.1669285980       10.7558197782      -24.8347499921  MEOH      2878            0.0000000000
     45427      3570  MEOH      LP1A           28.4372316773        9.2814015637      -24.0660463576  MEOH      2878            0.0000000000
     45428      3570  MEOH      LP1B           28.1117973086        9.0264906044      -23.5545173024  MEOH      2878            0.0000000000
     45429      3571  MEOH      C1            -15.2076000977      -36.2195794086       -8.1100532757  MEOH      2879            0.0000000000
     45430      3571  MEOH      DC1           -15.2009038677      -36.2051570651       -8.0896243403  MEOH      2879            0.0000000000
     45431      3571  MEOH      O1            -15.3175663366      -36.5903142622       -9.4813544783  MEOH      2879            0.0000000000
     45432      3571  MEOH      DO1           -15.3141960833      -36.5725191301       -9.4682424749  MEOH      2879            0.0000000000
     45433      3571  MEOH      HO1           -15.5674793782      -37.5256251548       -9.5416620705  MEOH      2879            0.0000000000
     45434      3571  MEOH      HO2           -15.8695739139      -35.9017377490       -9.8839088491  MEOH      2879            0.0000000000
     45435      3571  MEOH      H1A           -14.9838707693      -35.1328413379       -8.0528995029  MEOH      2879            0.0000000000
     45436      3571  MEOH      H1B           -14.3583330878      -36.7316187786       -7.6091718232  MEOH      2879            0.0000000000
     45437      3571  MEOH      H1C           -16.1501423372      -36.4461719868       -7.5672909593  MEOH      2879            0.0000000000
     45438      3571  MEOH      LP1A          -15.6431221733      -36.5313907938       -9.5955535242  MEOH      2879            0.0000000000
     45439      3571  MEOH      LP1B          -15.0076651813      -36.7008518586       -9.6006973192  MEOH      2879            0.0000000000
     45440      3572  MEOH      C1             36.5804916086      -21.8738007798      -17.2940789248  MEOH      2880            0.0000000000
     45441      3572  MEOH      DC1            36.5697889772      -21.8608850369      -17.2909392628  MEOH      2880            0.0000000000
     45442      3572  MEOH      O1             35.4704340445      -21.2226527480      -16.6983982330  MEOH      2880            0.0000000000
     45443      3572  MEOH      DO1            35.4672184971      -21.2136620847      -16.6950264215  MEOH      2880            0.0000000000
     45444      3572  MEOH      HO1            34.8690537467      -20.9910737430      -17.4233898902  MEOH      2880            0.0000000000
     45445      3572  MEOH      HO2            35.1802070672      -21.8304527414      -16.0003670949  MEOH      2880            0.0000000000
     45446      3572  MEOH      H1A            37.2758681927      -22.2221404315      -16.5007114854  MEOH      2880            0.0000000000
     45447      3572  MEOH      H1B            37.1306613275      -21.1731400098      -17.9579379201  MEOH      2880            0.0000000000
     45448      3572  MEOH      H1C            36.2409707857      -22.7651845473      -17.8637117817  MEOH      2880            0.0000000000
     45449      3572  MEOH      LP1A           35.2271712946      -21.4580418664      -16.6094308373  MEOH      2880            0.0000000000
     45450      3572  MEOH      LP1B           35.5310762479      -20.8786459337      -16.6764474950  MEOH      2880            0.0000000000
     45451      3573  MEOH      C1             16.5768716375       25.0854536927       33.9253346721  MEOH      2881            0.0000000000
     45452      3573  MEOH      DC1            16.5822294750       25.0889433563       33.9289732086  MEOH      2881            0.0000000000
     45453      3573  MEOH      O1             17.2245012243       25.9181641587       34.8901056569  MEOH      2881            0.0000000000
     45454      3573  MEOH      DO1            17.2216274168       25.9237324623       34.8975527760  MEOH      2881            0.0000000000
     45455      3573  MEOH      HO1            18.1660492630       25.6862393675       34.8656478946  MEOH      2881            0.0000000000
     45456      3573  MEOH      HO2            16.9407101894       26.8221935049       34.6825156969  MEOH      2881            0.0000000000
     45457      3573  MEOH      H1A            15.4795166512       25.2533417252       33.9694554465  MEOH      2881            0.0000000000
     45458      3573  MEOH      H1B            16.7848295565       24.0151591605       34.1387453552  MEOH      2881            0.0000000000
     45459      3573  MEOH      H1C            16.9405882128       25.3308350058       32.9046391913  MEOH      2881            0.0000000000
     45460      3573  MEOH      LP1A           17.3239864136       26.2188611643       34.7411626880  MEOH      2881            0.0000000000
     45461      3573  MEOH      LP1B           17.2233953217       25.7617641701       35.2032155745  MEOH      2881            0.0000000000
     45462      3574  MEOH      C1             23.1684623213      -30.2290699077       16.3127251659  MEOH      2882            0.0000000000
     45463      3574  MEOH      DC1            23.1641892179      -30.2055977443       16.3020973035  MEOH      2882            0.0000000000
     45464      3574  MEOH      O1             21.7659426319      -30.3717563146       16.5147021576  MEOH      2882            0.0000000000
     45465      3574  MEOH      DO1            21.7619037193      -30.3586371177       16.5025078321  MEOH      2882            0.0000000000
     45466      3574  MEOH      HO1            21.6644327252      -30.7844528548       17.3866409769  MEOH      2882            0.0000000000
     45467      3574  MEOH      HO2            21.3581945006      -29.5134099305       16.3200667357  MEOH      2882            0.0000000000
     45468      3574  MEOH      H1A            23.3588963765      -29.9629826972       15.2510032308  MEOH      2882            0.0000000000
     45469      3574  MEOH      H1B            23.6973231628      -31.1781444758       16.5448558932  MEOH      2882            0.0000000000
     45470      3574  MEOH      H1C            23.5560144433      -29.4385416919       16.9903603882  MEOH      2882            0.0000000000
     45471      3574  MEOH      LP1A           21.6369130476      -30.0838301341       16.6661943388  MEOH      2882            0.0000000000
     45472      3574  MEOH      LP1B           21.6572335181      -30.6789187062       16.3868992089  MEOH      2882            0.0000000000
     45473      3575  MEOH      C1            -26.1737783399       17.3096860322       -3.7400132857  MEOH      2883            0.0000000000
     45474      3575  MEOH      DC1           -26.1616542048       17.3224861120       -3.7490708829  MEOH      2883            0.0000000000
     45475      3575  MEOH      O1            -24.7691818659       17.2901373765       -3.9429949916  MEOH      2883            0.0000000000
     45476      3575  MEOH      DO1           -24.7628562073       17.2859377729       -3.9331714669  MEOH      2883            0.0000000000
     45477      3575  MEOH      HO1           -24.4833934007       18.1722626037       -4.2277405590  MEOH      2883            0.0000000000
     45478      3575  MEOH      HO2           -24.3756935612       16.8498683960       -3.1734300633  MEOH      2883            0.0000000000
     45479      3575  MEOH      H1A           -26.5175155178       16.2641099068       -3.5885658671  MEOH      2883            0.0000000000
     45480      3575  MEOH      H1B           -26.7036152214       17.7227765339       -4.6248579710  MEOH      2883            0.0000000000
     45481      3575  MEOH      H1C           -26.4296138691       17.9123464759       -2.8424223034  MEOH      2883            0.0000000000
     45482      3575  MEOH      LP1A          -24.6040145412       17.3691896517       -3.6447157724  MEOH      2883            0.0000000000
     45483      3575  MEOH      LP1B          -24.6971393940       17.1967105985       -4.2725117885  MEOH      2883            0.0000000000
     45484      3576  MEOH      C1             30.6483321719      -13.6962948448       36.1260340033  MEOH      2884            0.0000000000
     45485      3576  MEOH      DC1            30.6441359326      -13.7050176410       36.1190094338  MEOH      2884            0.0000000000
     45486      3576  MEOH      O1             29.7162435633      -12.6205390777       36.0059866136  MEOH      2884            0.0000000000
     45487      3576  MEOH      DO1            29.7126024952      -12.6349606725       35.9881812340  MEOH      2884            0.0000000000
     45488      3576  MEOH      HO1            29.3575177724      -12.4305685739       36.8869673254  MEOH      2884            0.0000000000
     45489      3576  MEOH      HO2            30.1778657993      -11.9254561170       35.5113507984  MEOH      2884            0.0000000000
     45490      3576  MEOH      H1A            31.0642667409      -13.9446131609       35.1262052928  MEOH      2884            0.0000000000
     45491      3576  MEOH      H1B            30.1367005211      -14.5958125798       36.5302887484  MEOH      2884            0.0000000000
     45492      3576  MEOH      H1C            31.4805547838      -13.4032502123       36.8012016621  MEOH      2884            0.0000000000
     45493      3576  MEOH      LP1A           29.8816118663      -12.3142329860       36.0424544424  MEOH      2884            0.0000000000
     45494      3576  MEOH      LP1B           29.3966578516      -12.7460661394       35.9381048811  MEOH      2884            0.0000000000
     45495      3577  MEOH      C1             29.2751045517       19.2011998844       24.0530516198  MEOH      2885            0.0000000000
     45496      3577  MEOH      DC1            29.2757808888       19.1928881131       24.0408756570  MEOH      2885            0.0000000000
     45497      3577  MEOH      O1             30.5749173507       18.6148912978       23.9428443002  MEOH      2885            0.0000000000
     45498      3577  MEOH      DO1            30.5724579515       18.6120385939       23.9317546968  MEOH      2885            0.0000000000
     45499      3577  MEOH      HO1            30.4960926467       17.7472912626       23.5162803004  MEOH      2885            0.0000000000
     45500      3577  MEOH      HO2            31.1567781151       19.3041515725       23.5861114525  MEOH      2885            0.0000000000
     45501      3577  MEOH      H1A            29.3277970399       20.0888572258       24.7190913692  MEOH      2885            0.0000000000
     45502      3577  MEOH      H1B            28.5595547945       18.4842754635       24.5094822502  MEOH      2885            0.0000000000
     45503      3577  MEOH      H1C            28.9099156193       19.5245838565       23.0548628350  MEOH      2885            0.0000000000
     45504      3577  MEOH      LP1A           30.7247542443       18.7116738479       23.6417097068  MEOH      2885            0.0000000000
     45505      3577  MEOH      LP1B           30.6472644781       18.4291972842       24.2305657392  MEOH      2885            0.0000000000
     45506      3578  MEOH      C1            -26.3600373430      -17.5433433326       19.0855488785  MEOH      2886            0.0000000000
     45507      3578  MEOH      DC1           -26.3753768891      -17.5499353548       19.0907437077  MEOH      2886            0.0000000000
     45508      3578  MEOH      O1            -25.1051335734      -16.9573805167       19.3905760005  MEOH      2886            0.0000000000
     45509      3578  MEOH      DO1           -25.1079738041      -16.9597185023       19.3859823990  MEOH      2886            0.0000000000
     45510      3578  MEOH      HO1           -24.5534652177      -17.0363061699       18.5966410116  MEOH      2886            0.0000000000
     45511      3578  MEOH      HO2           -25.3028594957      -16.0985717778       19.7958561632  MEOH      2886            0.0000000000
     45512      3578  MEOH      H1A           -27.0047263538      -17.5736087733       19.9898613708  MEOH      2886            0.0000000000
     45513      3578  MEOH      H1B           -26.1825233838      -18.5723021782       18.7060050882  MEOH      2886            0.0000000000
     45514      3578  MEOH      H1C           -26.8589681871      -16.9358131641       18.3005035887  MEOH      2886            0.0000000000
     45515      3578  MEOH      LP1A          -25.1113791167      -16.6154724108       19.3160116636  MEOH      2886            0.0000000000
     45516      3578  MEOH      LP1B          -24.8907449164      -17.1979322759       19.5272228259  MEOH      2886            0.0000000000
     45517      3579  MEOH      C1              9.8164378919      -26.0649843543        3.2635849715  MEOH      2887            0.0000000000
     45518      3579  MEOH      DC1             9.8284707893      -26.0491069981        3.2560437518  MEOH      2887            0.0000000000
     45519      3579  MEOH      O1             10.4550578489      -25.5367518554        2.1018765301  MEOH      2887            0.0000000000
     45520      3579  MEOH      DO1            10.4704961216      -25.5243028427        2.0953889804  MEOH      2887            0.0000000000
     45521      3579  MEOH      HO1             9.8837306683      -25.8075653431        1.3662507370  MEOH      2887            0.0000000000
     45522      3579  MEOH      HO2            10.6071817408      -24.5973909631        2.2899175816  MEOH      2887            0.0000000000
     45523      3579  MEOH      H1A            10.4615866437      -25.9108077978        4.1548389638  MEOH      2887            0.0000000000
     45524      3579  MEOH      H1B             9.6310414198      -27.1520854346        3.1288244803  MEOH      2887            0.0000000000
     45525      3579  MEOH      H1C             8.8426108880      -25.5605749127        3.4412168431  MEOH      2887            0.0000000000
     45526      3579  MEOH      LP1A           10.3402339137      -25.2120927660        2.0393310302  MEOH      2887            0.0000000000
     45527      3579  MEOH      LP1B           10.6853363914      -25.7683794300        1.9760971218  MEOH      2887            0.0000000000
     45528      3580  MEOH      C1             30.9657275239      -21.1565423920       -4.5838432261  MEOH      2888            0.0000000000
     45529      3580  MEOH      DC1            30.9734075818      -21.1515552233       -4.6132301879  MEOH      2888            0.0000000000
     45530      3580  MEOH      O1             29.9536652440      -21.1680515713       -3.5781662510  MEOH      2888            0.0000000000
     45531      3580  MEOH      DO1            29.9542313193      -21.1600409476       -3.6054463629  MEOH      2888            0.0000000000
     45532      3580  MEOH      HO1            30.2499453496      -20.6390690303       -2.8210034079  MEOH      2888            0.0000000000
     45533      3580  MEOH      HO2            29.1066683713      -21.0066234640       -4.0225053825  MEOH      2888            0.0000000000
     45534      3580  MEOH      H1A            30.7548459611      -21.9699847906       -5.3105903847  MEOH      2888            0.0000000000
     45535      3580  MEOH      H1B            31.9579994299      -21.3361409016       -4.1175151865  MEOH      2888            0.0000000000
     45536      3580  MEOH      H1C            30.9658187530      -20.1760179354       -5.1062346328  MEOH      2888            0.0000000000
     45537      3580  MEOH      LP1A           29.7294276736      -20.9045586069       -3.6309769481  MEOH      2888            0.0000000000
     45538      3580  MEOH      LP1B           30.0015305400      -21.4401378990       -3.3632757121  MEOH      2888            0.0000000000
     45539      3581  MEOH      C1             30.9438504973       22.2029673028        4.0249094879  MEOH      2889            0.0000000000
     45540      3581  MEOH      DC1            30.9373961035       22.2240257471        4.0375127736  MEOH      2889            0.0000000000
     45541      3581  MEOH      O1             31.0375041327       23.3642882752        3.2038729838  MEOH      2889            0.0000000000
     45542      3581  MEOH      DO1            31.0232871369       23.3839304069        3.2175469773  MEOH      2889            0.0000000000
     45543      3581  MEOH      HO1            31.4279699488       24.0669241216        3.7467719748  MEOH      2889            0.0000000000
     45544      3581  MEOH      HO2            31.5371093532       23.0735203958        2.4249322518  MEOH      2889            0.0000000000
     45545      3581  MEOH      H1A            30.6718388165       21.3227759966        3.4039474038  MEOH      2889            0.0000000000
     45546      3581  MEOH      H1B            30.1723020430       22.3420390774        4.8121153220  MEOH      2889            0.0000000000
     45547      3581  MEOH      H1C            31.9325391461       22.0120157687        4.4943274977  MEOH      2889            0.0000000000
     45548      3581  MEOH      LP1A           31.3435435435       23.3664752802        3.0340639850  MEOH      2889            0.0000000000
     45549      3581  MEOH      LP1B           30.7425929455       23.5513497061        3.2270119710  MEOH      2889            0.0000000000
     45550      3582  MEOH      C1             29.3193467188       15.9161677143      -25.5541802244  MEOH      2890            0.0000000000
     45551      3582  MEOH      DC1            29.3022111683       15.9140693368      -25.5535057561  MEOH      2890            0.0000000000
     45552      3582  MEOH      O1             28.4103036138       15.0486951282      -24.8800285325  MEOH      2890            0.0000000000
     45553      3582  MEOH      DO1            28.4015272466       15.0430495947      -24.8853729070  MEOH      2890            0.0000000000
     45554      3582  MEOH      HO1            28.9500674245       14.5160745115      -24.2751563901  MEOH      2890            0.0000000000
     45555      3582  MEOH      HO2            27.7152492926       15.6251938600      -24.5258411490  MEOH      2890            0.0000000000
     45556      3582  MEOH      H1A            28.7762593354       16.4996644962      -26.3280720773  MEOH      2890            0.0000000000
     45557      3582  MEOH      H1B            30.1270632668       15.3193502724      -26.0292843384  MEOH      2890            0.0000000000
     45558      3582  MEOH      H1C            29.7870004477       16.6354357113      -24.8482945826  MEOH      2890            0.0000000000
     45559      3582  MEOH      LP1A           28.2886773764       15.2040416396      -24.5909359526  MEOH      2890            0.0000000000
     45560      3582  MEOH      LP1B           28.3705754864       14.7522663333      -25.0618296476  MEOH      2890            0.0000000000
     45561      3583  MEOH      C1              2.9245696286      -22.5525794441       32.9823453528  MEOH      2891            0.0000000000
     45562      3583  MEOH      DC1             2.9166865584      -22.5503912763       32.9848235238  MEOH      2891            0.0000000000
     45563      3583  MEOH      O1              3.4903259350      -23.0612718663       34.1930930805  MEOH      2891            0.0000000000
     45564      3583  MEOH      DO1             3.4854200432      -23.0533117965       34.2037645015  MEOH      2891            0.0000000000
     45565      3583  MEOH      HO1             3.6235278275      -24.0135319183       34.0651944910  MEOH      2891            0.0000000000
     45566      3583  MEOH      HO2             4.2454098440      -22.4861321675       34.3929996064  MEOH      2891            0.0000000000
     45567      3583  MEOH      H1A             2.7358237245      -21.4623708234       33.0830486157  MEOH      2891            0.0000000000
     45568      3583  MEOH      H1B             1.9682502118      -23.0742788219       32.7641620951  MEOH      2891            0.0000000000
     45569      3583  MEOH      H1C             3.6318548737      -22.7142566416       32.1409601460  MEOH      2891            0.0000000000
     45570      3583  MEOH      LP1A            3.8394731491      -23.0406758483       34.1799771758  MEOH      2891            0.0000000000
     45571      3583  MEOH      LP1B            3.2356403816      -23.1565006097       34.4134717440  MEOH      2891            0.0000000000
     45572      3584  MEOH      C1              6.2094932627      -29.7676252004        4.1364433791  MEOH      2892            0.0000000000
     45573      3584  MEOH      DC1             6.2070468038      -29.7649985087        4.1585176273  MEOH      2892            0.0000000000
     45574      3584  MEOH      O1              6.1827377966      -28.3455331615        4.1057300791  MEOH      2892            0.0000000000
     45575      3584  MEOH      DO1             6.1771061348      -28.3390287632        4.1247442837  MEOH      2892            0.0000000000
     45576      3584  MEOH      HO1             6.1685462924      -28.1136857173        3.1639523113  MEOH      2892            0.0000000000
     45577      3584  MEOH      HO2             5.4664079147      -28.0840406699        4.7052241807  MEOH      2892            0.0000000000
     45578      3584  MEOH      H1A             6.4289256306      -30.1358504727        5.1614217141  MEOH      2892            0.0000000000
     45579      3584  MEOH      H1B             6.9907491718      -30.1353863672        3.4373640349  MEOH      2892            0.0000000000
     45580      3584  MEOH      H1C             5.2240947125      -30.1658242984        3.8127951510  MEOH      2892            0.0000000000
     45581      3584  MEOH      LP1A            5.8517769795      -28.2318611429        4.1123338459  MEOH      2892            0.0000000000
     45582      3584  MEOH      LP1B            6.5093118613      -28.2196391869        4.1054343629  MEOH      2892            0.0000000000
     45583      3585  MEOH      C1            -18.5982075495       35.6383215246       19.0675496863  MEOH      2893            0.0000000000
     45584      3585  MEOH      DC1           -18.5994002990       35.6282853405       19.0686058202  MEOH      2893            0.0000000000
     45585      3585  MEOH      O1            -17.7584359407       36.3075872671       20.0036793669  MEOH      2893            0.0000000000
     45586      3585  MEOH      DO1           -17.7548141788       36.3050432540       19.9952931320  MEOH      2893            0.0000000000
     45587      3585  MEOH      HO1           -17.7465746485       35.8015216037       20.8311193076  MEOH      2893            0.0000000000
     45588      3585  MEOH      HO2           -16.9374497728       36.5163622177       19.5311386469  MEOH      2893            0.0000000000
     45589      3585  MEOH      H1A           -18.7780197201       36.2898472261       18.1857884684  MEOH      2893            0.0000000000
     45590      3585  MEOH      H1B           -19.5798133438       35.4191505912       19.5394979537  MEOH      2893            0.0000000000
     45591      3585  MEOH      H1C           -18.1129236105       34.6950126944       18.7374149420  MEOH      2893            0.0000000000
     45592      3585  MEOH      LP1A          -17.4284549186       36.1959993923       19.9696107420  MEOH      2893            0.0000000000
     45593      3585  MEOH      LP1B          -17.9451284259       36.5398165006       20.1872971741  MEOH      2893            0.0000000000
     45594      3586  MEOH      C1             27.9639697017       35.0414815531        9.0544556788  MEOH      2894            0.0000000000
     45595      3586  MEOH      DC1            27.9382828727       35.0147611621        9.0474825320  MEOH      2894            0.0000000000
     45596      3586  MEOH      O1             28.2510499175       34.4580252026       10.3220824647  MEOH      2894            0.0000000000
     45597      3586  MEOH      DO1            28.2348271987       34.4339593062       10.3217472773  MEOH      2894            0.0000000000
     45598      3586  MEOH      HO1            28.2588676333       35.1939923698       10.9538982708  MEOH      2894            0.0000000000
     45599      3586  MEOH      HO2            27.6791858624       33.6796447409       10.4114992379  MEOH      2894            0.0000000000
     45600      3586  MEOH      H1A            28.2433408662       34.3078932000        8.2682490373  MEOH      2894            0.0000000000
     45601      3586  MEOH      H1B            28.5787840153       35.9549403015        8.9064101594  MEOH      2894            0.0000000000
     45602      3586  MEOH      H1C            26.8902665140       35.3166686592        8.9785971176  MEOH      2894            0.0000000000
     45603      3586  MEOH      LP1A           27.9537422086       34.3614346037       10.4794939713  MEOH      2894            0.0000000000
     45604      3586  MEOH      LP1B           28.5971545019       34.4461993307       10.3727950413  MEOH      2894            0.0000000000
     45605      3587  MEOH      C1              6.5988150046      -11.4256351100      -20.2801412660  MEOH      2895            0.0000000000
     45606      3587  MEOH      DC1             6.5988707885      -11.4253592721      -20.2744633473  MEOH      2895            0.0000000000
     45607      3587  MEOH      O1              7.8225815577      -11.4918219249      -19.5534407948  MEOH      2895            0.0000000000
     45608      3587  MEOH      DO1             7.8241162382      -11.4861899576      -19.5482003597  MEOH      2895            0.0000000000
     45609      3587  MEOH      HO1             8.3381432604      -12.2357857292      -19.9021727674  MEOH      2895            0.0000000000
     45610      3587  MEOH      HO2             8.1871135533      -10.5929248485      -19.5541272011  MEOH      2895            0.0000000000
     45611      3587  MEOH      H1A             5.9386125491      -10.6572530542      -19.8240242481  MEOH      2895            0.0000000000
     45612      3587  MEOH      H1B             6.0882710616      -12.4120331312      -20.2539720536  MEOH      2895            0.0000000000
     45613      3587  MEOH      H1C             6.8035822715      -11.1479538776      -21.3362115761  MEOH      2895            0.0000000000
     45614      3587  MEOH      LP1A            8.0648107303      -11.2923564873      -19.7084845536  MEOH      2895            0.0000000000
     45615      3587  MEOH      LP1B            7.7827707427      -11.6933248816      -19.2700476801  MEOH      2895            0.0000000000
     45616      3588  MEOH      C1             14.9960984151      -20.5796970335        9.8131866892  MEOH      2896            0.0000000000
     45617      3588  MEOH      DC1            14.9918189017      -20.5818251880        9.8116627870  MEOH      2896            0.0000000000
     45618      3588  MEOH      O1             16.4076749387      -20.7438645729        9.6798798395  MEOH      2896            0.0000000000
     45619      3588  MEOH      DO1            16.4048004034      -20.7482744686        9.6741101102  MEOH      2896            0.0000000000
     45620      3588  MEOH      HO1            16.6858242554      -20.2148505444        8.9158921978  MEOH      2896            0.0000000000
     45621      3588  MEOH      HO2            16.7768896094      -20.5272033205       10.5503041204  MEOH      2896            0.0000000000
     45622      3588  MEOH      H1A            14.6431161338      -21.1737376227       10.6831523712  MEOH      2896            0.0000000000
     45623      3588  MEOH      H1B            14.4630715591      -20.9375955299        8.9064827480  MEOH      2896            0.0000000000
     45624      3588  MEOH      H1C            14.7618937467      -19.5059933946        9.9763726899  MEOH      2896            0.0000000000
     45625      3588  MEOH      LP1A           16.5747853318      -20.5023045516        9.8702029138  MEOH      2896            0.0000000000
     45626      3588  MEOH      LP1B           16.4773893564      -21.0199193704        9.4763272696  MEOH      2896            0.0000000000
     45627      3589  MEOH      C1            -20.3861155397       -1.1031294314       32.1242244564  MEOH      2897            0.0000000000
     45628      3589  MEOH      DC1           -20.4026265645       -1.0958595882       32.1145059662  MEOH      2897            0.0000000000
     45629      3589  MEOH      O1            -21.5845997081       -0.6116207969       31.5174097002  MEOH      2897            0.0000000000
     45630      3589  MEOH      DO1           -21.6049903956       -0.6129847864       31.5130102250  MEOH      2897            0.0000000000
     45631      3589  MEOH      HO1           -22.1784947583       -1.3756483788       31.4506974572  MEOH      2897            0.0000000000
     45632      3589  MEOH      HO2           -21.8400148361        0.1706647558       32.0309196105  MEOH      2897            0.0000000000
     45633      3589  MEOH      H1A           -19.6183098468       -0.3006157499       32.1519230015  MEOH      2897            0.0000000000
     45634      3589  MEOH      H1B           -19.9847430261       -1.9620167177       31.5449717181  MEOH      2897            0.0000000000
     45635      3589  MEOH      H1C           -20.5908611580       -1.4339658155       33.1648721008  MEOH      2897            0.0000000000
     45636      3589  MEOH      LP1A          -21.8048412691       -0.4961791358       31.7637161713  MEOH      2897            0.0000000000
     45637      3589  MEOH      LP1B          -21.5603594048       -0.6342904334       31.1689868318  MEOH      2897            0.0000000000
     45638      3590  MEOH      C1             21.9821707247      -19.8421016392      -14.2222924289  MEOH      2898            0.0000000000
     45639      3590  MEOH      DC1            21.9716311116      -19.8434852625      -14.1952023173  MEOH      2898            0.0000000000
     45640      3590  MEOH      O1             21.9248001512      -20.2314218634      -15.5969587376  MEOH      2898            0.0000000000
     45641      3590  MEOH      DO1            21.9146973977      -20.2190907035      -15.5732538627  MEOH      2898            0.0000000000
     45642      3590  MEOH      HO1            22.6280094585      -20.8646918929      -15.8099510875  MEOH      2898            0.0000000000
     45643      3590  MEOH      HO2            20.9985870519      -20.4586361511      -15.7741675467  MEOH      2898            0.0000000000
     45644      3590  MEOH      H1A            21.2272389989      -19.0472346894      -14.0417775452  MEOH      2898            0.0000000000
     45645      3590  MEOH      H1B            22.9823312053      -19.4250285186      -13.9772413609  MEOH      2898            0.0000000000
     45646      3590  MEOH      H1C            21.7621664595      -20.7162763376      -13.5728790629  MEOH      2898            0.0000000000
     45647      3590  MEOH      LP1A           21.7153117948      -20.5093445859      -15.6340206967  MEOH      2898            0.0000000000
     45648      3590  MEOH      LP1B           22.1155852889      -20.0118579977      -15.7916193143  MEOH      2898            0.0000000000
     45649      3591  MEOH      C1            -24.0390104118        7.7250686211       18.9356900365  MEOH      2899            0.0000000000
     45650      3591  MEOH      DC1           -24.0459701173        7.7256154666       18.9305142190  MEOH      2899            0.0000000000
     45651      3591  MEOH      O1            -25.1272055386        8.6474138898       19.0280360861  MEOH      2899            0.0000000000
     45652      3591  MEOH      DO1           -25.1296140590        8.6442198913       19.0331942399  MEOH      2899            0.0000000000
     45653      3591  MEOH      HO1           -25.0960811744        9.2267672809       18.2506810041  MEOH      2899            0.0000000000
     45654      3591  MEOH      HO2           -25.9151676645        8.1241801392       19.2430759205  MEOH      2899            0.0000000000
     45655      3591  MEOH      H1A           -23.9758139320        7.1319484413       19.8729923671  MEOH      2899            0.0000000000
     45656      3591  MEOH      H1B           -23.0785345918        8.2626922955       18.7847993989  MEOH      2899            0.0000000000
     45657      3591  MEOH      H1C           -24.2080091194        7.0226937288       18.0916343822  MEOH      2899            0.0000000000
     45658      3591  MEOH      LP1A          -25.4120892200        8.5120174256       18.8763486260  MEOH      2899            0.0000000000
     45659      3591  MEOH      LP1B          -25.0278047445        8.9324859324       19.2051050350  MEOH      2899            0.0000000000
     45660      3592  MEOH      C1              4.4867252020       14.0342266695       20.5871335060  MEOH      2900            0.0000000000
     45661      3592  MEOH      DC1             4.5049399655       14.0610169475       20.6036933533  MEOH      2900            0.0000000000
     45662      3592  MEOH      O1              3.3925067899       13.1166072455       20.5262830737  MEOH      2900            0.0000000000
     45663      3592  MEOH      DO1             3.4028425689       13.1413903713       20.5538340058  MEOH      2900            0.0000000000
     45664      3592  MEOH      HO1             3.7065283535       12.2075748781       20.3999873322  MEOH      2900            0.0000000000
     45665      3592  MEOH      HO2             2.7403820038       13.3716885288       21.1975258035  MEOH      2900            0.0000000000
     45666      3592  MEOH      H1A             4.1086588035       15.0526418817       20.3542875157  MEOH      2900            0.0000000000
     45667      3592  MEOH      H1B             5.2550566100       13.7665743235       19.8305952917  MEOH      2900            0.0000000000
     45668      3592  MEOH      H1C             4.9283096626       14.0319751262       21.6066035127  MEOH      2900            0.0000000000
     45669      3592  MEOH      LP1A            3.3125793895       13.0041228954       20.8479333211  MEOH      2900            0.0000000000
     45670      3592  MEOH      LP1B            3.2817876562       13.0840821792       20.1958539687  MEOH      2900            0.0000000000
     45671      3593  MEOH      C1             28.5410389714       20.2657988400       -3.9074396908  MEOH      2901            0.0000000000
     45672      3593  MEOH      DC1            28.5362283624       20.2732839145       -3.9104350196  MEOH      2901            0.0000000000
     45673      3593  MEOH      O1             27.3642420320       20.1967039147       -4.7176225033  MEOH      2901            0.0000000000
     45674      3593  MEOH      DO1            27.3586538434       20.2032601385       -4.7193718587  MEOH      2901            0.0000000000
     45675      3593  MEOH      HO1            27.4279252755       20.8984449685       -5.3842587894  MEOH      2901            0.0000000000
     45676      3593  MEOH      HO2            27.3020792124       19.2723906633       -5.0051651939  MEOH      2901            0.0000000000
     45677      3593  MEOH      H1A            28.5008074749       19.4820356213       -3.1210443411  MEOH      2901            0.0000000000
     45678      3593  MEOH      H1B            28.6092554570       21.2613893496       -3.4191088097  MEOH      2901            0.0000000000
     45679      3593  MEOH      H1C            29.4458539853       20.0904397621       -4.5278266542  MEOH      2901            0.0000000000
     45680      3593  MEOH      LP1A           27.4165891969       19.9787324591       -4.9864127912  MEOH      2901            0.0000000000
     45681      3593  MEOH      LP1B           27.1111629487       20.3942289326       -4.5782135907  MEOH      2901            0.0000000000
     45682      3594  MEOH      C1             -2.5486167743       -7.9487760571      -14.4853064563  MEOH      2902            0.0000000000
     45683      3594  MEOH      DC1            -2.5383769846       -7.9558892732      -14.4926111320  MEOH      2902            0.0000000000
     45684      3594  MEOH      O1             -3.4551912723       -8.7126298735      -13.6950916041  MEOH      2902            0.0000000000
     45685      3594  MEOH      DO1            -3.4461553337       -8.7144990925      -13.6911632609  MEOH      2902            0.0000000000
     45686      3594  MEOH      HO1            -3.2191613073       -9.6509991158      -13.7633046690  MEOH      2902            0.0000000000
     45687      3594  MEOH      HO2            -3.4848367435       -8.2832013870      -12.8258319646  MEOH      2902            0.0000000000
     45688      3594  MEOH      H1A            -2.8771247988       -6.8874868307      -14.4770204539  MEOH      2902            0.0000000000
     45689      3594  MEOH      H1B            -2.5562537506       -8.3155597962      -15.5339877072  MEOH      2902            0.0000000000
     45690      3594  MEOH      H1C            -1.5257131018       -8.0114691341      -14.0562858799  MEOH      2902            0.0000000000
     45691      3594  MEOH      LP1A           -3.3344241692       -8.7406289168      -13.3677823308  MEOH      2902            0.0000000000
     45692      3594  MEOH      LP1B           -3.7337656391       -8.8033638273      -13.8865692054  MEOH      2902            0.0000000000
     45693      3595  MEOH      C1             27.0629589098      -13.4243281417        9.3926684135  MEOH      2903            0.0000000000
     45694      3595  MEOH      DC1            27.0633520077      -13.4241722944        9.3976942353  MEOH      2903            0.0000000000
     45695      3595  MEOH      O1             28.2138579485      -13.0773086424       10.1621433432  MEOH      2903            0.0000000000
     45696      3595  MEOH      DO1            28.2214678893      -13.0785919252       10.1519004386  MEOH      2903            0.0000000000
     45697      3595  MEOH      HO1            27.9154509882      -12.5117934526       10.8915580786  MEOH      2903            0.0000000000
     45698      3595  MEOH      HO2            28.6734761302      -13.9109561951       10.3483767632  MEOH      2903            0.0000000000
     45699      3595  MEOH      H1A            27.3617589284      -13.9728775917        8.4739012775  MEOH      2903            0.0000000000
     45700      3595  MEOH      H1B            26.5135957956      -12.5064629891        9.0925938723  MEOH      2903            0.0000000000
     45701      3595  MEOH      H1C            26.4019463607      -14.0874482742        9.9907111386  MEOH      2903            0.0000000000
     45702      3595  MEOH      LP1A           28.2683763896      -13.3173940070       10.4109138344  MEOH      2903            0.0000000000
     45703      3595  MEOH      LP1B           28.3589977671      -12.7851521142       10.0353403617  MEOH      2903            0.0000000000
     45704      3596  MEOH      C1            -15.6775807318        3.4140450426      -29.3045658185  MEOH      2904            0.0000000000
     45705      3596  MEOH      DC1           -15.6815823304        3.4053177282      -29.2982680655  MEOH      2904            0.0000000000
     45706      3596  MEOH      O1            -16.9931449226        3.3232947541      -29.8577653974  MEOH      2904            0.0000000000
     45707      3596  MEOH      DO1           -17.0002580425        3.3228477525      -29.8404800174  MEOH      2904            0.0000000000
     45708      3596  MEOH      HO1           -16.9136700869        3.5236441535      -30.8035158236  MEOH      2904            0.0000000000
     45709      3596  MEOH      HO2           -17.3415567576        2.4636373732      -29.5740430301  MEOH      2904            0.0000000000
     45710      3596  MEOH      H1A           -15.7296452253        3.2291461934      -28.2102977050  MEOH      2904            0.0000000000
     45711      3596  MEOH      H1B           -15.2545528838        4.4261799279      -29.4804959637  MEOH      2904            0.0000000000
     45712      3596  MEOH      H1C           -15.0047232315        2.6587510095      -29.7640380252  MEOH      2904            0.0000000000
     45713      3596  MEOH      LP1A          -17.0566587336        2.9953880720      -29.9623751659  MEOH      2904            0.0000000000
     45714      3596  MEOH      LP1B          -17.1540489744        3.6333118265      -29.8354203538  MEOH      2904            0.0000000000
     45715      3597  MEOH      C1              9.0679209920       27.1131280451      -26.8505815433  MEOH      2905            0.0000000000
     45716      3597  MEOH      DC1             9.0634719858       27.1105014113      -26.8604777907  MEOH      2905            0.0000000000
     45717      3597  MEOH      O1             10.1783862951       27.8945728883      -26.4033520450  MEOH      2905            0.0000000000
     45718      3597  MEOH      DO1            10.1701303283       27.8955747053      -26.4051428083  MEOH      2905            0.0000000000
     45719      3597  MEOH      HO1            10.8043695740       27.9830597063      -27.1390252190  MEOH      2905            0.0000000000
     45720      3597  MEOH      HO2             9.8006097216       28.6932881644      -26.0030536960  MEOH      2905            0.0000000000
     45721      3597  MEOH      H1A             8.3488988649       26.9832982549      -26.0136392476  MEOH      2905            0.0000000000
     45722      3597  MEOH      H1B             9.4143143156       26.1099741112      -27.1792376747  MEOH      2905            0.0000000000
     45723      3597  MEOH      H1C             8.5453016131       27.6279485685      -27.6849374711  MEOH      2905            0.0000000000
     45724      3597  MEOH      LP1A           10.1154757202       28.2344502490      -26.4583578559  MEOH      2905            0.0000000000
     45725      3597  MEOH      LP1B           10.4224086042       27.6865334971      -26.2630925557  MEOH      2905            0.0000000000
     45726      3598  MEOH      C1            -10.4246541413       30.3592901994       29.3412131591  MEOH      2906            0.0000000000
     45727      3598  MEOH      DC1           -10.4226296656       30.3552338554       29.3427821744  MEOH      2906            0.0000000000
     45728      3598  MEOH      O1            -11.6876713897       29.6891894891       29.3043751689  MEOH      2906            0.0000000000
     45729      3598  MEOH      DO1           -11.6878004456       29.6842495637       29.3048756139  MEOH      2906            0.0000000000
     45730      3598  MEOH      HO1           -11.7500428033       29.1447524132       30.1047488802  MEOH      2906            0.0000000000
     45731      3598  MEOH      HO2           -12.3470777463       30.3812076272       29.1394686700  MEOH      2906            0.0000000000
     45732      3598  MEOH      H1A           -10.2948281136       30.9589288940       28.4149844405  MEOH      2906            0.0000000000
     45733      3598  MEOH      H1B            -9.5989744652       29.6197627742       29.4165342110  MEOH      2906            0.0000000000
     45734      3598  MEOH      H1C           -10.3821176892       31.0430315856       30.2158612981  MEOH      2906            0.0000000000
     45735      3598  MEOH      LP1A          -11.9327611313       29.8872663099       29.4566794422  MEOH      2906            0.0000000000
     45736      3598  MEOH      LP1B          -11.6563998764       29.3840110811       29.1358870929  MEOH      2906            0.0000000000
     45737      3599  MEOH      C1            -22.4270150040       31.8203425649       30.2782675864  MEOH      2907            0.0000000000
     45738      3599  MEOH      DC1           -22.4323346166       31.8182252792       30.2776635660  MEOH      2907            0.0000000000
     45739      3599  MEOH      O1            -22.9127662087       33.0344383365       29.6980506604  MEOH      2907            0.0000000000
     45740      3599  MEOH      DO1           -22.9133353390       33.0356492220       29.6920720588  MEOH      2907            0.0000000000
     45741      3599  MEOH      HO1           -23.6096097599       33.3744019859       30.2809175263  MEOH      2907            0.0000000000
     45742      3599  MEOH      HO2           -22.1239997237       33.5729284608       29.5284162944  MEOH      2907            0.0000000000
     45743      3599  MEOH      H1A           -21.6545541212       31.3734920758       29.6164898088  MEOH      2907            0.0000000000
     45744      3599  MEOH      H1B           -23.2557967852       31.0905225554       30.3999413852  MEOH      2907            0.0000000000
     45745      3599  MEOH      H1C           -21.9755723209       32.0276462037       31.2720209286  MEOH      2907            0.0000000000
     45746      3599  MEOH      LP1A          -22.7250814987       33.3060804020       29.8141757562  MEOH      2907            0.0000000000
     45747      3599  MEOH      LP1B          -23.1743187383       32.9648001116       29.4761479973  MEOH      2907            0.0000000000
     45748      3600  MEOH      C1            -19.4625166316       12.1479619688       14.4530602770  MEOH      2908            0.0000000000
     45749      3600  MEOH      DC1           -19.4783926539       12.1788139181       14.4532222068  MEOH      2908            0.0000000000
     45750      3600  MEOH      O1            -19.8635151423       13.4452673059       14.0014171760  MEOH      2908            0.0000000000
     45751      3600  MEOH      DO1           -19.8749963738       13.4776968439       13.9994726072  MEOH      2908            0.0000000000
     45752      3600  MEOH      HO1           -19.4210714062       13.5225931235       13.1416705516  MEOH      2908            0.0000000000
     45753      3600  MEOH      HO2           -20.8314234807       13.4602231820       14.0633023224  MEOH      2908            0.0000000000
     45754      3600  MEOH      H1A           -19.8599218160       11.9415396205       15.4698099687  MEOH      2908            0.0000000000
     45755      3600  MEOH      H1B           -18.3544065638       12.0702540524       14.4724137740  MEOH      2908            0.0000000000
     45756      3600  MEOH      H1C           -19.8442316208       11.3666546868       13.7615593023  MEOH      2908            0.0000000000
     45757      3600  MEOH      LP1A          -20.1627609435       13.4221330356       13.8213706376  MEOH      2908            0.0000000000
     45758      3600  MEOH      LP1B          -19.6374713511       13.6869018166       14.1155091025  MEOH      2908            0.0000000000
     45759      3601  MEOH      C1             -7.5719528020       16.6986415323       -9.3119156302  MEOH      2909            0.0000000000
     45760      3601  MEOH      DC1            -7.5761863243       16.6997080156       -9.3129414368  MEOH      2909            0.0000000000
     45761      3601  MEOH      O1             -8.6599457572       15.7761835634       -9.3976700272  MEOH      2909            0.0000000000
     45762      3601  MEOH      DO1            -8.6682581263       15.7808809138       -9.3992818606  MEOH      2909            0.0000000000
     45763      3601  MEOH      HO1            -8.5635480029       15.1519918465       -8.6614688499  MEOH      2909            0.0000000000
     45764      3601  MEOH      HO2            -9.4603418386       16.3110863763       -9.5166031807  MEOH      2909            0.0000000000
     45765      3601  MEOH      H1A            -7.5147684644       17.2908779618      -10.2501623802  MEOH      2909            0.0000000000
     45766      3601  MEOH      H1B            -6.6140250037       16.1534539323       -9.1723956884  MEOH      2909            0.0000000000
     45767      3601  MEOH      H1C            -7.7292555568       17.4023753004       -8.4667318464  MEOH      2909            0.0000000000
     45768      3601  MEOH      LP1A           -8.9348886068       15.8984038359       -9.2188722799  MEOH      2909            0.0000000000
     45769      3601  MEOH      LP1B           -8.5711702339       15.5048621916       -9.6001635324  MEOH      2909            0.0000000000
     45770      3602  MEOH      C1            -36.1427055370        6.9785452906       31.1732808873  MEOH      2910            0.0000000000
     45771      3602  MEOH      DC1           -36.1320422322        6.9854563583       31.1729619883  MEOH      2910            0.0000000000
     45772      3602  MEOH      O1            -35.7409121105        8.2732346376       31.6311587348  MEOH      2910            0.0000000000
     45773      3602  MEOH      DO1           -35.7329799195        8.2802354340       31.6277375652  MEOH      2910            0.0000000000
     45774      3602  MEOH      HO1           -36.4936330254        8.8633685513       31.4697487307  MEOH      2910            0.0000000000
     45775      3602  MEOH      HO2           -35.4186513496        8.1411539487       32.5364778462  MEOH      2910            0.0000000000
     45776      3602  MEOH      H1A           -35.3142797588        6.2548755360       31.3292738910  MEOH      2910            0.0000000000
     45777      3602  MEOH      H1B           -36.3830999656        7.0191533993       30.0893609178  MEOH      2910            0.0000000000
     45778      3602  MEOH      H1C           -37.0355461363        6.6275714055       31.7336147149  MEOH      2910            0.0000000000
     45779      3602  MEOH      LP1A          -35.8204306768        8.3103827654       31.9699755204  MEOH      2910            0.0000000000
     45780      3602  MEOH      LP1B          -35.5839483495        8.4484670653       31.3720140377  MEOH      2910            0.0000000000
     45781      3603  MEOH      C1              2.3830248971      -16.3422114817       12.6936208506  MEOH      2911            0.0000000000
     45782      3603  MEOH      DC1             2.3660780340      -16.3518129304       12.6907600434  MEOH      2911            0.0000000000
     45783      3603  MEOH      O1              1.5343032966      -17.4915544651       12.7354754619  MEOH      2911            0.0000000000
     45784      3603  MEOH      DO1             1.5221757003      -17.5018078119       12.7280114561  MEOH      2911            0.0000000000
     45785      3603  MEOH      HO1             2.1322802574      -18.2553041722       12.7386282874  MEOH      2911            0.0000000000
     45786      3603  MEOH      HO2             0.9266153379      -17.3433004388       13.4768499210  MEOH      2911            0.0000000000
     45787      3603  MEOH      H1A             1.7622908049      -15.4215024861       12.6574942235  MEOH      2911            0.0000000000
     45788      3603  MEOH      H1B             3.0236729218      -16.3649092144       11.7862202107  MEOH      2911            0.0000000000
     45789      3603  MEOH      H1C             3.0411385966      -16.3146011603       13.5882967870  MEOH      2911            0.0000000000
     45790      3603  MEOH      LP1A            1.4655828723      -17.5775815054       13.0677055804  MEOH      2911            0.0000000000
     45791      3603  MEOH      LP1B            1.4516311541      -17.5912187721       12.4103103612  MEOH      2911            0.0000000000
     45792      3604  MEOH      C1             28.0037736931       -0.8580077522       31.5155620751  MEOH      2912            0.0000000000
     45793      3604  MEOH      DC1            28.0200282926       -0.8498770305       31.5139251365  MEOH      2912            0.0000000000
     45794      3604  MEOH      O1             29.2986740404       -1.0570990814       32.0983110473  MEOH      2912            0.0000000000
     45795      3604  MEOH      DO1            29.3065430224       -1.0577723482       32.0967033957  MEOH      2912            0.0000000000
     45796      3604  MEOH      HO1            29.8258714955       -1.5959520106       31.4879010505  MEOH      2912            0.0000000000
     45797      3604  MEOH      HO2            29.6058946599       -0.1866302853       32.3963036085  MEOH      2912            0.0000000000
     45798      3604  MEOH      H1A            27.3194465706       -0.4167653653       32.2714208895  MEOH      2912            0.0000000000
     45799      3604  MEOH      H1B            27.5685071363       -1.8236079745       31.1801813427  MEOH      2912            0.0000000000
     45800      3604  MEOH      H1C            28.0719202083       -0.1834996728       30.6353826028  MEOH      2912            0.0000000000
     45801      3604  MEOH      LP1A           29.5135924164       -0.7974541482       32.0039998587  MEOH      2912            0.0000000000
     45802      3604  MEOH      LP1B           29.2968043575       -1.3437972403       32.2990613149  MEOH      2912            0.0000000000
     45803      3605  MEOH      C1            -20.9603727463      -19.7101388640      -21.4127159870  MEOH      2913            0.0000000000
     45804      3605  MEOH      DC1           -20.9669446481      -19.7100675039      -21.4427609360  MEOH      2913            0.0000000000
     45805      3605  MEOH      O1            -20.9728488136      -21.1307823216      -21.4967656955  MEOH      2913            0.0000000000
     45806      3605  MEOH      DO1           -20.9851466711      -21.1365245538      -21.5220645620  MEOH      2913            0.0000000000
     45807      3605  MEOH      HO1           -20.2866380904      -21.3775440705      -22.1363933079  MEOH      2913            0.0000000000
     45808      3605  MEOH      HO2           -20.8610439123      -21.4336667283      -20.5820741070  MEOH      2913            0.0000000000
     45809      3605  MEOH      H1A           -21.6524369123      -19.3737658256      -20.6113288339  MEOH      2913            0.0000000000
     45810      3605  MEOH      H1B           -21.3313032375      -19.2656442636      -22.3609544179  MEOH      2913            0.0000000000
     45811      3605  MEOH      H1C           -19.9414020141      -19.3419841140      -21.1667856624  MEOH      2913            0.0000000000
     45812      3605  MEOH      LP1A          -20.7573701492      -21.2667911498      -21.2568270704  MEOH      2913            0.0000000000
     45813      3605  MEOH      LP1B          -21.1989334792      -21.2341412720      -21.7431447761  MEOH      2913            0.0000000000
     45814      3606  MEOH      C1             25.4816482787      -11.7351809620      -23.4900815755  MEOH      2914            0.0000000000
     45815      3606  MEOH      DC1            25.4860158239      -11.7375530928      -23.4843005853  MEOH      2914            0.0000000000
     45816      3606  MEOH      O1             25.6023911768      -10.5153462043      -24.2299756166  MEOH      2914            0.0000000000
     45817      3606  MEOH      DO1            25.6018749467      -10.5252043994      -24.2292820599  MEOH      2914            0.0000000000
     45818      3606  MEOH      HO1            25.2553856913       -9.7919866891      -23.6847800510  MEOH      2914            0.0000000000
     45819      3606  MEOH      HO2            26.5230470063      -10.4775655004      -24.5330687749  MEOH      2914            0.0000000000
     45820      3606  MEOH      H1A            25.9310670205      -12.5752524274      -24.0615916169  MEOH      2914            0.0000000000
     45821      3606  MEOH      H1B            24.4152831027      -11.9634505479      -23.2777626887  MEOH      2914            0.0000000000
     45822      3606  MEOH      H1C            26.0253768826      -11.6382257598      -22.5260899288  MEOH      2914            0.0000000000
     45823      3606  MEOH      LP1A           25.9142161909      -10.3686230854      -24.1688406268  MEOH      2914            0.0000000000
     45824      3606  MEOH      LP1B           25.3154036356      -10.4638730929      -24.4235955277  MEOH      2914            0.0000000000
     45825      3607  MEOH      C1             32.6698286200      -11.5391508796       10.1792492625  MEOH      2915            0.0000000000
     45826      3607  MEOH      DC1            32.6528484208      -11.5320307303       10.1748784783  MEOH      2915            0.0000000000
     45827      3607  MEOH      O1             31.6390277136      -11.1312117152       11.0708725001  MEOH      2915            0.0000000000
     45828      3607  MEOH      DO1            31.6345080272      -11.1255811196       11.0709116068  MEOH      2915            0.0000000000
     45829      3607  MEOH      HO1            31.0749887091      -10.4843364613       10.6188632002  MEOH      2915            0.0000000000
     45830      3607  MEOH      HO2            31.2711317889      -11.9437845145       11.4520260598  MEOH      2915            0.0000000000
     45831      3607  MEOH      H1A            33.3972304092      -12.1891585410       10.7109424797  MEOH      2915            0.0000000000
     45832      3607  MEOH      H1B            33.1956540778      -10.6382954730        9.7967729546  MEOH      2915            0.0000000000
     45833      3607  MEOH      H1C            32.2419396449      -12.1092904674        9.3270914859  MEOH      2915            0.0000000000
     45834      3607  MEOH      LP1A           31.3629275247      -11.3440974733       11.0400773757  MEOH      2915            0.0000000000
     45835      3607  MEOH      LP1B           31.7458909273      -10.8566436570       11.2597974454  MEOH      2915            0.0000000000
     45836      3608  MEOH      C1              5.9359561048       14.3200258896       -5.9580086873  MEOH      2916            0.0000000000
     45837      3608  MEOH      DC1             5.9344627681       14.3090515648       -5.9508940496  MEOH      2916            0.0000000000
     45838      3608  MEOH      O1              5.6656421797       13.3044983208       -4.9808833303  MEOH      2916            0.0000000000
     45839      3608  MEOH      DO1             5.6445382508       13.2978079362       -4.9564091757  MEOH      2916            0.0000000000
     45840      3608  MEOH      HO1             5.7274461063       12.4692718360       -5.4702471966  MEOH      2916            0.0000000000
     45841      3608  MEOH      HO2             6.2865151358       13.4777365027       -4.2560348596  MEOH      2916            0.0000000000
     45842      3608  MEOH      H1A             5.9136290406       15.3256258326       -5.4862129085  MEOH      2916            0.0000000000
     45843      3608  MEOH      H1B             5.1770626052       14.2867316575       -6.7687448666  MEOH      2916            0.0000000000
     45844      3608  MEOH      H1C             6.9489518954       14.1851093091       -6.3938504535  MEOH      2916            0.0000000000
     45845      3608  MEOH      LP1A            5.9631517061       13.2062659016       -4.8248754025  MEOH      2916            0.0000000000
     45846      3608  MEOH      LP1B            5.3217090560       13.2413850642       -4.9658259997  MEOH      2916            0.0000000000
     45847      3609  MEOH      C1            -24.7551974993      -34.2714820604      -14.9789497077  MEOH      2917            0.0000000000
     45848      3609  MEOH      DC1           -24.7411885584      -34.2610706058      -14.9698512318  MEOH      2917            0.0000000000
     45849      3609  MEOH      O1            -23.6574297104      -33.3619703009      -15.0512316941  MEOH      2917            0.0000000000
     45850      3609  MEOH      DO1           -23.6559104901      -33.3460952605      -15.0486931473  MEOH      2917            0.0000000000
     45851      3609  MEOH      HO1           -23.2499349371      -33.5118742715      -15.9186282650  MEOH      2917            0.0000000000
     45852      3609  MEOH      HO2           -24.0188204947      -32.4924681600      -14.8182880784  MEOH      2917            0.0000000000
     45853      3609  MEOH      H1A           -25.2325852325      -34.2074752323      -13.9777878436  MEOH      2917            0.0000000000
     45854      3609  MEOH      H1B           -24.4102146678      -35.3118135748      -15.1606587836  MEOH      2917            0.0000000000
     45855      3609  MEOH      H1C           -25.5123659908      -34.0146144193      -15.7503354032  MEOH      2917            0.0000000000
     45856      3609  MEOH      LP1A          -23.7638943683      -33.0561517622      -15.1840484777  MEOH      2917            0.0000000000
     45857      3609  MEOH      LP1B          -23.3693759265      -33.5113482813      -14.9200400917  MEOH      2917            0.0000000000
     45858      3610  MEOH      C1            -36.9263932118      -26.7984986844       -3.7308121685  MEOH      2918            0.0000000000
     45859      3610  MEOH      DC1           -36.9191773328      -26.7919470995       -3.7468477553  MEOH      2918            0.0000000000
     45860      3610  MEOH      O1            -35.5343275502      -26.5700780281       -3.9555229340  MEOH      2918            0.0000000000
     45861      3610  MEOH      DO1           -35.5292061743      -26.5649266910       -3.9657855063  MEOH      2918            0.0000000000
     45862      3610  MEOH      HO1           -35.3451602239      -25.6561826540       -3.6911161111  MEOH      2918            0.0000000000
     45863      3610  MEOH      HO2           -35.0768557924      -27.2961993366       -3.5034527658  MEOH      2918            0.0000000000
     45864      3610  MEOH      H1A           -37.1845494310      -27.8499511562       -3.9800591703  MEOH      2918            0.0000000000
     45865      3610  MEOH      H1B           -37.5327472276      -26.1197256353       -4.3679330015  MEOH      2918            0.0000000000
     45866      3610  MEOH      H1C           -37.1707652523      -26.6177544427       -2.6621986627  MEOH      2918            0.0000000000
     45867      3610  MEOH      LP1A          -35.3510288397      -26.6583881960       -3.6707372304  MEOH      2918            0.0000000000
     45868      3610  MEOH      LP1B          -35.4831680273      -26.4542414471       -4.2818120538  MEOH      2918            0.0000000000
     45869      3611  MEOH      C1            -29.7878870297       13.8832226794       23.1754769722  MEOH      2919            0.0000000000
     45870      3611  MEOH      DC1           -29.7915922807       13.8957103129       23.1819737508  MEOH      2919            0.0000000000
     45871      3611  MEOH      O1            -29.5104455375       13.0331334142       24.2895646358  MEOH      2919            0.0000000000
     45872      3611  MEOH      DO1           -29.5100826143       13.0481644450       24.2918951329  MEOH      2919            0.0000000000
     45873      3611  MEOH      HO1           -29.2611969615       12.1632231992       23.9402347556  MEOH      2919            0.0000000000
     45874      3611  MEOH      HO2           -28.9164769853       13.5270250900       24.8762266954  MEOH      2919            0.0000000000
     45875      3611  MEOH      H1A           -30.1467102061       14.8702642573       23.5378522642  MEOH      2919            0.0000000000
     45876      3611  MEOH      H1B           -30.5849539995       13.4268298523       22.5504083096  MEOH      2919            0.0000000000
     45877      3611  MEOH      H1C           -28.8743701024       14.0313529939       22.5607695329  MEOH      2919            0.0000000000
     45878      3611  MEOH      LP1A          -29.1731391232       13.0594892875       24.3791735125  MEOH      2919            0.0000000000
     45879      3611  MEOH      LP1B          -29.8036425216       12.8729436974       24.3938468642  MEOH      2919            0.0000000000
     45880      3612  MEOH      C1            -34.4673047758       -8.0305525481        7.0626998012  MEOH      2920            0.0000000000
     45881      3612  MEOH      DC1           -34.4764805101       -8.0267895075        7.0650700881  MEOH      2920            0.0000000000
     45882      3612  MEOH      O1            -34.9646993516       -8.1487941486        8.3957854412  MEOH      2920            0.0000000000
     45883      3612  MEOH      DO1           -34.9770679190       -8.1416362804        8.3970972864  MEOH      2920            0.0000000000
     45884      3612  MEOH      HO1           -34.3714744053       -7.6480151101        8.9773389799  MEOH      2920            0.0000000000
     45885      3612  MEOH      HO2           -35.9252477147       -8.0172431596        8.3651067936  MEOH      2920            0.0000000000
     45886      3612  MEOH      H1A           -34.9956125742       -8.7498730195        6.4010428428  MEOH      2920            0.0000000000
     45887      3612  MEOH      H1B           -33.3812026735       -8.2611701452        7.0237286891  MEOH      2920            0.0000000000
     45888      3612  MEOH      H1C           -34.6271337462       -6.9915453348        6.7032005507  MEOH      2920            0.0000000000
     45889      3612  MEOH      LP1A          -35.1942497738       -7.8927733298        8.4610536880  MEOH      2920            0.0000000000
     45890      3612  MEOH      LP1B          -34.8272001637       -8.4311667539        8.5502512469  MEOH      2920            0.0000000000
     45891      3613  MEOH      C1             14.7395011581        8.3124597263       -8.6268840085  MEOH      2921            0.0000000000
     45892      3613  MEOH      DC1            14.7508434186        8.3108994192       -8.6287219094  MEOH      2921            0.0000000000
     45893      3613  MEOH      O1             15.9607335808        8.2141339252       -9.3570968921  MEOH      2921            0.0000000000
     45894      3613  MEOH      DO1            15.9669438306        8.2215058971       -9.3560374213  MEOH      2921            0.0000000000
     45895      3613  MEOH      HO1            16.6736664844        8.4359337046       -8.7378784058  MEOH      2921            0.0000000000
     45896      3613  MEOH      HO2            15.9498101393        7.3344138688       -9.7655981782  MEOH      2921            0.0000000000
     45897      3613  MEOH      H1A            13.8703196429        8.0847594283       -9.2803341358  MEOH      2921            0.0000000000
     45898      3613  MEOH      H1B            14.6218239178        9.3491737463       -8.2451811033  MEOH      2921            0.0000000000
     45899      3613  MEOH      H1C            14.7323981858        7.5926432942       -7.7806364951  MEOH      2921            0.0000000000
     45900      3613  MEOH      LP1A           16.0853756683        7.8876095574       -9.3384907845  MEOH      2921            0.0000000000
     45901      3613  MEOH      LP1B           16.0352204117        8.5211765546       -9.5076841949  MEOH      2921            0.0000000000
     45902      3614  MEOH      C1             20.4915415752       -0.7267023341      -16.3137475335  MEOH      2922            0.0000000000
     45903      3614  MEOH      DC1            20.4945874594       -0.7378010672      -16.3127888719  MEOH      2922            0.0000000000
     45904      3614  MEOH      O1             19.3471097080       -0.5154406162      -15.4935192910  MEOH      2922            0.0000000000
     45905      3614  MEOH      DO1            19.3470057617       -0.5234197491      -15.4977304680  MEOH      2922            0.0000000000
     45906      3614  MEOH      HO1            18.9852222213       -1.3827102098      -15.2531427135  MEOH      2922            0.0000000000
     45907      3614  MEOH      HO2            19.6400243587        0.0960280910      -14.7998284165  MEOH      2922            0.0000000000
     45908      3614  MEOH      H1A            20.8504835615        0.2398540395      -16.7275716834  MEOH      2922            0.0000000000
     45909      3614  MEOH      H1B            20.2237769719       -1.4081355347      -17.1493741921  MEOH      2922            0.0000000000
     45910      3614  MEOH      H1C            21.3102057269       -1.1809915069      -15.7156410590  MEOH      2922            0.0000000000
     45911      3614  MEOH      LP1A           19.4425112801       -0.4974462612      -15.1572534093  MEOH      2922            0.0000000000
     45912      3614  MEOH      LP1B           19.0607628662       -0.4865590722      -15.6926959527  MEOH      2922            0.0000000000
     45913      3615  MEOH      C1             29.6479811853      -17.0902709740        9.2739664092  MEOH      2923            0.0000000000
     45914      3615  MEOH      DC1            29.6537942616      -17.0896774414        9.2698496427  MEOH      2923            0.0000000000
     45915      3615  MEOH      O1             29.7826119215      -18.4826953691        8.9764380806  MEOH      2923            0.0000000000
     45916      3615  MEOH      DO1            29.7925408179      -18.4762379748        8.9668786508  MEOH      2923            0.0000000000
     45917      3615  MEOH      HO1            29.8960370355      -18.9507225818        9.8184507127  MEOH      2923            0.0000000000
     45918      3615  MEOH      HO2            29.0215741792      -18.6971757303        8.4145486526  MEOH      2923            0.0000000000
     45919      3615  MEOH      H1A            29.5315270847      -16.5263877243        8.3238110936  MEOH      2923            0.0000000000
     45920      3615  MEOH      H1B            30.5473328300      -16.7252589066        9.8145714498  MEOH      2923            0.0000000000
     45921      3615  MEOH      H1C            28.7503202951      -16.9116771295        9.9037522191  MEOH      2923            0.0000000000
     45922      3615  MEOH      LP1A           29.4673950781      -18.6346511042        8.9695246038  MEOH      2923            0.0000000000
     45923      3615  MEOH      LP1B           30.1192984864      -18.5615391928        8.9223473373  MEOH      2923            0.0000000000
     45924      3616  MEOH      C1             13.0558424704       19.5100066954       32.3846743105  MEOH      2924            0.0000000000
     45925      3616  MEOH      DC1            13.0492624197       19.4959012940       32.3930489860  MEOH      2924            0.0000000000
     45926      3616  MEOH      O1             13.0855069959       20.8503452215       31.9088483283  MEOH      2924            0.0000000000
     45927      3616  MEOH      DO1            13.0682132708       20.8447094674       31.9120940480  MEOH      2924            0.0000000000
     45928      3616  MEOH      HO1            12.8330563129       21.4332102716       32.6419492673  MEOH      2924            0.0000000000
     45929      3616  MEOH      HO2            13.9629642649       20.9572298638       31.5094182164  MEOH      2924            0.0000000000
     45930      3616  MEOH      H1A            13.4432572519       18.8126703620       31.6114002155  MEOH      2924            0.0000000000
     45931      3616  MEOH      H1B            12.0070148755       19.2307507078       32.6219458206  MEOH      2924            0.0000000000
     45932      3616  MEOH      H1C            13.7015944723       19.4233943243       33.2845763336  MEOH      2924            0.0000000000
     45933      3616  MEOH      LP1A           13.4051974799       20.9858957860       31.9527121964  MEOH      2924            0.0000000000
     45934      3616  MEOH      LP1B           12.7740266627       20.9366145010       31.7745441457  MEOH      2924            0.0000000000
     45935      3617  MEOH      C1            -22.4281990199      -14.4388440717      -33.0294724463  MEOH      2925            0.0000000000
     45936      3617  MEOH      DC1           -22.4257963397      -14.4482068973      -33.0187991175  MEOH      2925            0.0000000000
     45937      3617  MEOH      O1            -21.4347431092      -15.0185545420      -32.1842129779  MEOH      2925            0.0000000000
     45938      3617  MEOH      DO1           -21.4375551317      -15.0228851325      -32.1637367418  MEOH      2925            0.0000000000
     45939      3617  MEOH      HO1           -21.0839215054      -15.7826384106      -32.6679484882  MEOH      2925            0.0000000000
     45940      3617  MEOH      HO2           -20.8190056020      -14.2941533346      -31.9918325877  MEOH      2925            0.0000000000
     45941      3617  MEOH      H1A           -22.8058041091      -13.4962818361      -32.5785713167  MEOH      2925            0.0000000000
     45942      3617  MEOH      H1B           -23.2726976783      -15.1475389220      -33.1669301765  MEOH      2925            0.0000000000
     45943      3617  MEOH      H1C           -21.9846227916      -14.1960068007      -34.0187101278  MEOH      2925            0.0000000000
     45944      3617  MEOH      LP1A          -21.1235342581      -14.8710947395      -32.2467002374  MEOH      2925            0.0000000000
     45945      3617  MEOH      LP1B          -21.5813455970      -15.2551786342      -31.9720414681  MEOH      2925            0.0000000000
     45946      3618  MEOH      C1             25.4910510172       -2.9956605832       -6.3721960743  MEOH      2926            0.0000000000
     45947      3618  MEOH      DC1            25.4884191961       -2.9951078836       -6.3635733072  MEOH      2926            0.0000000000
     45948      3618  MEOH      O1             24.4255754781       -2.4205022402       -7.1299552337  MEOH      2926            0.0000000000
     45949      3618  MEOH      DO1            24.4198621048       -2.4311957435       -7.1211556229  MEOH      2926            0.0000000000
     45950      3618  MEOH      HO1            24.1669757545       -3.0543608194       -7.8171593406  MEOH      2926            0.0000000000
     45951      3618  MEOH      HO2            23.7804076730       -2.0716089471       -6.4951860047  MEOH      2926            0.0000000000
     45952      3618  MEOH      H1A            25.9377909967       -2.2274893000       -5.7053698072  MEOH      2926            0.0000000000
     45953      3618  MEOH      H1B            26.2873938857       -3.3670904371       -7.0520481910  MEOH      2926            0.0000000000
     45954      3618  MEOH      H1C            25.1075834003       -3.8294815626       -5.7460841342  MEOH      2926            0.0000000000
     45955      3618  MEOH      LP1A           24.1177933761       -2.5015354351       -6.9843399906  MEOH      2926            0.0000000000
     45956      3618  MEOH      LP1B           24.5551825752       -2.2336543709       -7.3960188992  MEOH      2926            0.0000000000
     45957      3619  MEOH      C1              1.4413655244       31.8180308476      -15.1772254038  MEOH      2927            0.0000000000
     45958      3619  MEOH      DC1             1.4564938554       31.8366277543      -15.1898211869  MEOH      2927            0.0000000000
     45959      3619  MEOH      O1              2.0418946072       32.2081541455      -16.4158433737  MEOH      2927            0.0000000000
     45960      3619  MEOH      DO1             2.0413109072       32.2249577460      -16.4343179228  MEOH      2927            0.0000000000
     45961      3619  MEOH      HO1             2.0317980449       31.4056552531      -16.9606310269  MEOH      2927            0.0000000000
     45962      3619  MEOH      HO2             1.6007570846       33.0253531736      -16.6959923268  MEOH      2927            0.0000000000
     45963      3619  MEOH      H1A             1.5312241065       32.6267709349      -14.4207956936  MEOH      2927            0.0000000000
     45964      3619  MEOH      H1B             1.9321240134       30.9029072878      -14.7822241668  MEOH      2927            0.0000000000
     45965      3619  MEOH      H1C             0.3731905918       31.5526494381      -15.3285397170  MEOH      2927            0.0000000000
     45966      3619  MEOH      LP1A            1.7970782113       32.3293872380      -16.6346297297  MEOH      2927            0.0000000000
     45967      3619  MEOH      LP1B            2.3886024163       32.1628584004      -16.4002873287  MEOH      2927            0.0000000000
     45968      3620  MEOH      C1            -15.7637369812        9.1707861272        3.8057563020  MEOH      2928            0.0000000000
     45969      3620  MEOH      DC1           -15.7629663567        9.1731171022        3.8012537580  MEOH      2928            0.0000000000
     45970      3620  MEOH      O1            -16.1668408420        9.7832609027        5.0282808222  MEOH      2928            0.0000000000
     45971      3620  MEOH      DO1           -16.1730932209        9.7894744009        5.0211708899  MEOH      2928            0.0000000000
     45972      3620  MEOH      HO1           -16.5392882089       10.6515113058        4.8084531708  MEOH      2928            0.0000000000
     45973      3620  MEOH      HO2           -16.7099592189        9.1209386432        5.4835298248  MEOH      2928            0.0000000000
     45974      3620  MEOH      H1A           -15.2680060800        8.1990975103        4.0164530172  MEOH      2928            0.0000000000
     45975      3620  MEOH      H1B           -15.0531031675        9.8235014799        3.2550447156  MEOH      2928            0.0000000000
     45976      3620  MEOH      H1C           -16.6632600483        8.9976180243        3.1771132704  MEOH      2928            0.0000000000
     45977      3620  MEOH      LP1A          -16.4969523712        9.6945325823        5.1034716687  MEOH      2928            0.0000000000
     45978      3620  MEOH      LP1B          -15.9008262358        9.9656282297        5.1642160544  MEOH      2928            0.0000000000
     45979      3621  MEOH      C1             14.7203136639      -17.7619875128       32.3890003013  MEOH      2929            0.0000000000
     45980      3621  MEOH      DC1            14.7216660802      -17.7494157057       32.4004107380  MEOH      2929            0.0000000000
     45981      3621  MEOH      O1             15.1210444659      -16.5642831414       33.0590878412  MEOH      2929            0.0000000000
     45982      3621  MEOH      DO1            15.1385271380      -16.5544841646       33.0642066181  MEOH      2929            0.0000000000
     45983      3621  MEOH      HO1            14.6774737352      -16.5730266639       33.9216819275  MEOH      2929            0.0000000000
     45984      3621  MEOH      HO2            16.0848364998      -16.5086277756       32.9647088353  MEOH      2929            0.0000000000
     45985      3621  MEOH      H1A            15.0452808105      -17.7247253398       31.3272428504  MEOH      2929            0.0000000000
     45986      3621  MEOH      H1B            13.6138675524      -17.8588612984       32.4157112016  MEOH      2929            0.0000000000
     45987      3621  MEOH      H1C            15.1766821401      -18.6520840916       32.8725051065  MEOH      2929            0.0000000000
     45988      3621  MEOH      LP1A           15.4145153175      -16.6213864927       33.2410605494  MEOH      2929            0.0000000000
     45989      3621  MEOH      LP1B           14.9010906226      -16.3036935148       32.9802630144  MEOH      2929            0.0000000000
     45990      3622  MEOH      C1             22.0088160834      -20.6996023031       -9.5484618511  MEOH      2930            0.0000000000
     45991      3622  MEOH      DC1            21.9994340169      -20.6952747393       -9.5519270292  MEOH      2930            0.0000000000
     45992      3622  MEOH      O1             20.8844074138      -20.9938114206       -8.7115926862  MEOH      2930            0.0000000000
     45993      3622  MEOH      DO1            20.8790035696      -20.9980684628       -8.7140915280  MEOH      2930            0.0000000000
     45994      3622  MEOH      HO1            20.0787015595      -20.9102528465       -9.2452180614  MEOH      2930            0.0000000000
     45995      3622  MEOH      HO2            21.0970583747      -21.8257061511       -8.2603380709  MEOH      2930            0.0000000000
     45996      3622  MEOH      H1A            22.9327188787      -20.6692721186       -8.9321788753  MEOH      2930            0.0000000000
     45997      3622  MEOH      H1B            21.8798279024      -19.7134005913      -10.0435267292  MEOH      2930            0.0000000000
     45998      3622  MEOH      H1C            22.1313622488      -21.4865966864      -10.3230219056  MEOH      2930            0.0000000000
     45999      3622  MEOH      LP1A           20.8156617173      -21.3368976319       -8.7197093887  MEOH      2930            0.0000000000
     46000      3622  MEOH      LP1B           20.7722613308      -20.7017249850       -8.5547208589  MEOH      2930            0.0000000000
     46001      3623  MEOH      C1             35.5977587171        9.2000240197      -19.4301109588  MEOH      2931            0.0000000000
     46002      3623  MEOH      DC1            35.6047205355        9.2027104215      -19.4262996092  MEOH      2931            0.0000000000
     46003      3623  MEOH      O1             35.3439984099        7.8527438807      -19.8320148253  MEOH      2931            0.0000000000
     46004      3623  MEOH      DO1            35.3500455523        7.8563924639      -19.8250188555  MEOH      2931            0.0000000000
     46005      3623  MEOH      HO1            35.5033060580        7.2734475032      -19.0704790217  MEOH      2931            0.0000000000
     46006      3623  MEOH      HO2            34.4685493642        7.8652962445      -20.2495449535  MEOH      2931            0.0000000000
     46007      3623  MEOH      H1A            35.4647311072        9.8746727242      -20.3027356102  MEOH      2931            0.0000000000
     46008      3623  MEOH      H1B            36.6394901155        9.2964483138      -19.0561871031  MEOH      2931            0.0000000000
     46009      3623  MEOH      H1C            34.8857147973        9.4993277216      -18.6315298732  MEOH      2931            0.0000000000
     46010      3623  MEOH      LP1A           35.0068755505        7.7739680722      -19.7806090902  MEOH      2931            0.0000000000
     46011      3623  MEOH      LP1B           35.6359387611        7.7093932516      -19.9613261879  MEOH      2931            0.0000000000
     46012      3624  MEOH      C1              0.8718980648       13.4108562485       33.0570817936  MEOH      2932            0.0000000000
     46013      3624  MEOH      DC1             0.8646658950       13.4581787742       33.0416705574  MEOH      2932            0.0000000000
     46014      3624  MEOH      O1              0.7152096027       11.9993533564       33.1553954505  MEOH      2932            0.0000000000
     46015      3624  MEOH      DO1             0.7263558761       12.0291653087       33.1548360865  MEOH      2932            0.0000000000
     46016      3624  MEOH      HO1            -0.1500893423       11.7190440751       32.8183725396  MEOH      2932            0.0000000000
     46017      3624  MEOH      HO2             1.5207217124       11.6079463679       32.7827685432  MEOH      2932            0.0000000000
     46018      3624  MEOH      H1A             1.8830448943       13.6712669680       33.4366728204  MEOH      2932            0.0000000000
     46019      3624  MEOH      H1B             0.1098741025       13.9076897601       33.6948881459  MEOH      2932            0.0000000000
     46020      3624  MEOH      H1C             0.7834491076       13.7182384884       31.9931203560  MEOH      2932            0.0000000000
     46021      3624  MEOH      LP1A            0.8357800502       11.8450336358       32.8653123744  MEOH      2932            0.0000000000
     46022      3624  MEOH      LP1B            0.5787788763       11.9154433452       33.4665959758  MEOH      2932            0.0000000000
     46023      3625  MEOH      C1              5.6091102278      -23.1498779533       36.7724434276  MEOH      2933            0.0000000000
     46024      3625  MEOH      DC1             5.6132491508      -23.1401435105       36.7931587851  MEOH      2933            0.0000000000
     46025      3625  MEOH      O1              6.4985205459      -22.0430754131       36.6076079893  MEOH      2933            0.0000000000
     46026      3625  MEOH      DO1             6.5151132765      -22.0439080894       36.6276947585  MEOH      2933            0.0000000000
     46027      3625  MEOH      HO1             6.4317567002      -21.4692991572       37.3868533920  MEOH      2933            0.0000000000
     46028      3625  MEOH      HO2             7.3427870721      -22.4000146261       36.2902620724  MEOH      2933            0.0000000000
     46029      3625  MEOH      H1A             5.4714221329      -23.6468092093       35.7883589210  MEOH      2933            0.0000000000
     46030      3625  MEOH      H1B             4.6124360403      -22.8070203652       37.1237413615  MEOH      2933            0.0000000000
     46031      3625  MEOH      H1C             6.0344271021      -23.8865767299       37.4870772298  MEOH      2933            0.0000000000
     46032      3625  MEOH      LP1A            6.8144377555      -22.1233566130       36.7350883628  MEOH      2933            0.0000000000
     46033      3625  MEOH      LP1B            6.3348401698      -21.7815600873       36.4423249930  MEOH      2933            0.0000000000
     46034      3626  MEOH      C1            -35.0893534445      -27.1689170162        6.0424487989  MEOH      2934            0.0000000000
     46035      3626  MEOH      DC1           -35.0850064842      -27.1607149222        6.0358608477  MEOH      2934            0.0000000000
     46036      3626  MEOH      O1            -35.7643138774      -27.4360415475        4.8133334877  MEOH      2934            0.0000000000
     46037      3626  MEOH      DO1           -35.7389953057      -27.4253544385        4.8059241073  MEOH      2934            0.0000000000
     46038      3626  MEOH      HO1           -36.2861433403      -28.2473057167        4.9155316260  MEOH      2934            0.0000000000
     46039      3626  MEOH      HO2           -36.2640359111      -26.6255766685        4.6280645740  MEOH      2934            0.0000000000
     46040      3626  MEOH      H1A           -34.6007683406      -26.1726921494        5.9863987070  MEOH      2934            0.0000000000
     46041      3626  MEOH      H1B           -34.3136069232      -27.9405434218        6.2351429232  MEOH      2934            0.0000000000
     46042      3626  MEOH      H1C           -35.8102531669      -27.1605925593        6.8877625239  MEOH      2934            0.0000000000
     46043      3626  MEOH      LP1A          -36.0753885182      -27.2756569331        4.8102768056  MEOH      2934            0.0000000000
     46044      3626  MEOH      LP1B          -35.5617590486      -27.6318195283        4.6056257036  MEOH      2934            0.0000000000
     46045      3627  MEOH      C1             16.0101244515       -1.7237390583      -16.9652265189  MEOH      2935            0.0000000000
     46046      3627  MEOH      DC1            16.0218069315       -1.7388273439      -16.9490270567  MEOH      2935            0.0000000000
     46047      3627  MEOH      O1             17.2750344683       -2.3745807299      -17.1265753631  MEOH      2935            0.0000000000
     46048      3627  MEOH      DO1            17.2885724261       -2.4014336817      -17.1200180486  MEOH      2935            0.0000000000
     46049      3627  MEOH      HO1            17.8707755691       -1.6802866729      -17.4489855105  MEOH      2935            0.0000000000
     46050      3627  MEOH      HO2            17.4493496973       -2.8405433468      -16.2938731103  MEOH      2935            0.0000000000
     46051      3627  MEOH      H1A            15.2312168106       -2.4535455783      -16.6569955460  MEOH      2935            0.0000000000
     46052      3627  MEOH      H1B            15.6831291943       -1.2769349550      -17.9284301296  MEOH      2935            0.0000000000
     46053      3627  MEOH      H1C            16.0946135567       -0.9141062599      -16.2091330572  MEOH      2935            0.0000000000
     46054      3627  MEOH      LP1A           17.4573053600       -2.3576097563      -16.8282646055  MEOH      2935            0.0000000000
     46055      3627  MEOH      LP1B           17.2996740988       -2.5102633016      -17.4482632994  MEOH      2935            0.0000000000
     46056      3628  MEOH      C1            -29.6962527269       17.0100953888       10.8158033235  MEOH      2936            0.0000000000
     46057      3628  MEOH      DC1           -29.6836048487       17.0217794339       10.8068548719  MEOH      2936            0.0000000000
     46058      3628  MEOH      O1            -29.4486354601       18.3870757194       11.1183323399  MEOH      2936            0.0000000000
     46059      3628  MEOH      DO1           -29.4378882168       18.3894311108       11.0975460183  MEOH      2936            0.0000000000
     46060      3628  MEOH      HO1           -28.5683436046       18.6408654950       10.7996208733  MEOH      2936            0.0000000000
     46061      3628  MEOH      HO2           -30.2435650950       18.8795749990       10.8605895695  MEOH      2936            0.0000000000
     46062      3628  MEOH      H1A           -30.6309084622       16.6852858243       11.3210145695  MEOH      2936            0.0000000000
     46063      3628  MEOH      H1B           -28.8635715676       16.3710623219       11.1799459159  MEOH      2936            0.0000000000
     46064      3628  MEOH      H1C           -29.8209620890       16.8679876034        9.7210093005  MEOH      2936            0.0000000000
     46065      3628  MEOH      LP1A          -29.5629287455       18.5895452139       10.8567159247  MEOH      2936            0.0000000000
     46066      3628  MEOH      LP1B          -29.3032849167       18.4157073651       11.4354339772  MEOH      2936            0.0000000000
     46067      3629  MEOH      C1              8.1837916063       14.8464184376       21.6484149971  MEOH      2937            0.0000000000
     46068      3629  MEOH      DC1             8.1776032827       14.8534316438       21.6511308156  MEOH      2937            0.0000000000
     46069      3629  MEOH      O1              8.7273593323       15.2529560902       22.9095651543  MEOH      2937            0.0000000000
     46070      3629  MEOH      DO1             8.7225419311       15.2487505011       22.9148277543  MEOH      2937            0.0000000000
     46071      3629  MEOH      HO1             9.4950896760       15.8153176775       22.7218431139  MEOH      2937            0.0000000000
     46072      3629  MEOH      HO2             7.9811460817       15.5938781026       23.4270957978  MEOH      2937            0.0000000000
     46073      3629  MEOH      H1A             7.3197445805       14.1686719599       21.8169482253  MEOH      2937            0.0000000000
     46074      3629  MEOH      H1B             8.9424930801       14.2951003487       21.0528132509  MEOH      2937            0.0000000000
     46075      3629  MEOH      H1C             7.8420704896       15.7329826438       21.0726098328  MEOH      2937            0.0000000000
     46076      3629  MEOH      LP1A            8.5741367289       15.5490519164       23.0161019815  MEOH      2937            0.0000000000
     46077      3629  MEOH      LP1B            8.9632816854       15.0188584071       23.0192871578  MEOH      2937            0.0000000000
     46078      3630  MEOH      C1            -25.8817206759      -34.1694222812       10.1222772356  MEOH      2938            0.0000000000
     46079      3630  MEOH      DC1           -25.8841110500      -34.1815578994       10.1184236368  MEOH      2938            0.0000000000
     46080      3630  MEOH      O1            -26.7887813416      -35.2424736732       10.3941636662  MEOH      2938            0.0000000000
     46081      3630  MEOH      DO1           -26.7846673029      -35.2563962921       10.3913364124  MEOH      2938            0.0000000000
     46082      3630  MEOH      HO1           -27.4422680531      -35.2570750467        9.6774755059  MEOH      2938            0.0000000000
     46083      3630  MEOH      HO2           -26.2439788691      -36.0181522937       10.6001076965  MEOH      2938            0.0000000000
     46084      3630  MEOH      H1A           -25.2175387595      -34.0075306771       10.9980480338  MEOH      2938            0.0000000000
     46085      3630  MEOH      H1B           -26.4436014195      -33.2305666210        9.9295051443  MEOH      2938            0.0000000000
     46086      3630  MEOH      H1C           -25.2589866076      -34.4096655775        9.2341294776  MEOH      2938            0.0000000000
     46087      3630  MEOH      LP1A          -26.6699114070      -35.5388919932       10.2509640915  MEOH      2938            0.0000000000
     46088      3630  MEOH      LP1B          -27.0535630214      -35.1280722187       10.5924134310  MEOH      2938            0.0000000000
     46089      3631  MEOH      C1            -12.0896848232      -33.9258696348       30.2737180191  MEOH      2939            0.0000000000
     46090      3631  MEOH      DC1           -12.0845455617      -33.9423544705       30.2766853804  MEOH      2939            0.0000000000
     46091      3631  MEOH      O1            -12.9941969998      -33.0213477164       30.9023620055  MEOH      2939            0.0000000000
     46092      3631  MEOH      DO1           -12.9865691568      -33.0314647682       30.9132126499  MEOH      2939            0.0000000000
     46093      3631  MEOH      HO1           -13.1864771373      -32.3297744396       30.2499397859  MEOH      2939            0.0000000000
     46094      3631  MEOH      HO2           -13.7262121173      -33.5686622034       31.2271707494  MEOH      2939            0.0000000000
     46095      3631  MEOH      H1A           -11.8245643400      -34.7383119098       30.9836262386  MEOH      2939            0.0000000000
     46096      3631  MEOH      H1B           -11.1651398243      -33.3898671295       29.9700095090  MEOH      2939            0.0000000000
     46097      3631  MEOH      H1C           -12.5726472953      -34.3645865741       29.3744985244  MEOH      2939            0.0000000000
     46098      3631  MEOH      LP1A          -13.3240995665      -33.1248209696       30.8479783467  MEOH      2939            0.0000000000
     46099      3631  MEOH      LP1B          -12.8159952995      -32.7723302722       31.0718744432  MEOH      2939            0.0000000000
     46100      3632  MEOH      C1             -1.9475710883       -1.2562981899       36.8569660901  MEOH      2940            0.0000000000
     46101      3632  MEOH      DC1            -1.9485124751       -1.2771137073       36.8624221992  MEOH      2940            0.0000000000
     46102      3632  MEOH      O1             -3.0656900170       -1.1826683477       35.9677502335  MEOH      2940            0.0000000000
     46103      3632  MEOH      DO1            -3.0640527344       -1.1987252195       35.9681767543  MEOH      2940            0.0000000000
     46104      3632  MEOH      HO1            -3.8680482675       -1.1072689826       36.5075985216  MEOH      2940            0.0000000000
     46105      3632  MEOH      HO2            -2.8564455772       -0.4581482531       35.3576786009  MEOH      2940            0.0000000000
     46106      3632  MEOH      H1A            -1.0047177934       -1.2788475960       36.2697351397  MEOH      2940            0.0000000000
     46107      3632  MEOH      H1B            -2.0112157197       -2.1740994185       37.4797913189  MEOH      2940            0.0000000000
     46108      3632  MEOH      H1C            -1.9196270305       -0.3541962132       37.5048489150  MEOH      2940            0.0000000000
     46109      3632  MEOH      LP1A           -3.1291346623       -0.8491739043       35.8825667070  MEOH      2940            0.0000000000
     46110      3632  MEOH      LP1B           -3.1822786280       -1.5045876778       35.8951207581  MEOH      2940            0.0000000000
     46111      3633  MEOH      C1             11.8978905103      -18.8076011009      -28.8954897741  MEOH      2941            0.0000000000
     46112      3633  MEOH      DC1            11.9027981757      -18.8274406616      -28.9099219293  MEOH      2941            0.0000000000
     46113      3633  MEOH      O1             10.9029955989      -17.8278267852      -28.6239493618  MEOH      2941            0.0000000000
     46114      3633  MEOH      DO1            10.9044099606      -17.8501174262      -28.6188871268  MEOH      2941            0.0000000000
     46115      3633  MEOH      HO1            10.8643326855      -17.1731918053      -29.3386928278  MEOH      2941            0.0000000000
     46116      3633  MEOH      HO2            10.1128660540      -18.2996603252      -28.3174066825  MEOH      2941            0.0000000000
     46117      3633  MEOH      H1A            12.1144055021      -19.3555490068      -27.9535792941  MEOH      2941            0.0000000000
     46118      3633  MEOH      H1B            12.8313435693      -18.3140418394      -29.2410120489  MEOH      2941            0.0000000000
     46119      3633  MEOH      H1C            11.5312007545      -19.5180058779      -29.6669719034  MEOH      2941            0.0000000000
     46120      3633  MEOH      LP1A           10.5944360006      -17.9317622553      -28.7523564971  MEOH      2941            0.0000000000
     46121      3633  MEOH      LP1B           11.0415781435      -17.5642936930      -28.4399787455  MEOH      2941            0.0000000000
     46122      3634  MEOH      C1             -1.8571881474       11.0082379821      -35.8671424612  MEOH      2942            0.0000000000
     46123      3634  MEOH      DC1            -1.8753048152       11.0233054014      -35.8601313677  MEOH      2942            0.0000000000
     46124      3634  MEOH      O1             -3.2019093182       11.3260797441      -36.2302595793  MEOH      2942            0.0000000000
     46125      3634  MEOH      DO1            -3.2148013143       11.3466700436      -36.2295802640  MEOH      2942            0.0000000000
     46126      3634  MEOH      HO1            -3.1628244476       12.1674466067      -36.7113772109  MEOH      2942            0.0000000000
     46127      3634  MEOH      HO2            -3.5312368438       10.5386607717      -36.6911443190  MEOH      2942            0.0000000000
     46128      3634  MEOH      H1A            -1.8211504605       10.0204983296      -35.3598036554  MEOH      2942            0.0000000000
     46129      3634  MEOH      H1B            -1.4529260240       11.7891812788      -35.1881574064  MEOH      2942            0.0000000000
     46130      3634  MEOH      H1C            -1.2189057033       10.9598009665      -36.7752010373  MEOH      2942            0.0000000000
     46131      3634  MEOH      LP1A           -3.2786736843       11.1844185659      -36.5409673885  MEOH      2942            0.0000000000
     46132      3634  MEOH      LP1B           -3.3541350899       11.5113757419      -35.9753229055  MEOH      2942            0.0000000000
     46133      3635  MEOH      C1             13.5061911114       -3.4904613594      -14.0049130321  MEOH      2943            0.0000000000
     46134      3635  MEOH      DC1            13.5069987864       -3.5009657023      -13.9987985994  MEOH      2943            0.0000000000
     46135      3635  MEOH      O1             14.9196399726       -3.6645970880      -14.0503082602  MEOH      2943            0.0000000000
     46136      3635  MEOH      DO1            14.9197022148       -3.6828515269      -14.0420007955  MEOH      2943            0.0000000000
     46137      3635  MEOH      HO1            15.2047605518       -3.4472089415      -14.9516121211  MEOH      2943            0.0000000000
     46138      3635  MEOH      HO2            15.2667793856       -3.1741414218      -13.2888310988  MEOH      2943            0.0000000000
     46139      3635  MEOH      H1A            13.1129476331       -3.7270667449      -12.9931331844  MEOH      2943            0.0000000000
     46140      3635  MEOH      H1B            13.0284035046       -4.1639928623      -14.7481460494  MEOH      2943            0.0000000000
     46141      3635  MEOH      H1C            13.2584235396       -2.4340748616      -14.2436174468  MEOH      2943            0.0000000000
     46142      3635  MEOH      LP1A           15.0798964760       -3.3669086245      -13.9597575464  MEOH      2943            0.0000000000
     46143      3635  MEOH      LP1B           14.9968505177       -3.9946677822      -14.1374395895  MEOH      2943            0.0000000000
     46144      3636  MEOH      C1             24.1971454340       19.1062115702       16.6888710967  MEOH      2944            0.0000000000
     46145      3636  MEOH      DC1            24.1991948571       19.0905709562       16.7077176572  MEOH      2944            0.0000000000
     46146      3636  MEOH      O1             25.5450562508       19.3437378755       17.0886875488  MEOH      2944            0.0000000000
     46147      3636  MEOH      DO1            25.5537067359       19.3310761392       17.1089291732  MEOH      2944            0.0000000000
     46148      3636  MEOH      HO1            26.0599199721       18.6452541209       16.6551719286  MEOH      2944            0.0000000000
     46149      3636  MEOH      HO2            25.7145599773       20.2559691469       16.8058402478  MEOH      2944            0.0000000000
     46150      3636  MEOH      H1A            23.5419627990       19.9408997517       17.0180402847  MEOH      2944            0.0000000000
     46151      3636  MEOH      H1B            23.8251410177       18.1426589345       17.0981387773  MEOH      2944            0.0000000000
     46152      3636  MEOH      H1C            24.1625187999       19.0784163697       15.5787587493  MEOH      2944            0.0000000000
     46153      3636  MEOH      LP1A           25.6998710828       19.5625849157       16.8636579046  MEOH      2944            0.0000000000
     46154      3636  MEOH      LP1B           25.6131394519       19.1738330969       17.3870112722  MEOH      2944            0.0000000000
     46155      3637  MEOH      C1            -23.8629969763      -13.4881796902      -10.9983801589  MEOH      2945            0.0000000000
     46156      3637  MEOH      DC1           -23.8596071755      -13.4881847143      -10.9921264311  MEOH      2945            0.0000000000
     46157      3637  MEOH      O1            -23.3000698315      -12.5939340019      -10.0335891250  MEOH      2945            0.0000000000
     46158      3637  MEOH      DO1           -23.2999420720      -12.5986237828      -10.0197936973  MEOH      2945            0.0000000000
     46159      3637  MEOH      HO1           -22.4181660370      -12.3639919720      -10.3656619484  MEOH      2945            0.0000000000
     46160      3637  MEOH      HO2           -23.9595085753      -11.8924126813       -9.9156553273  MEOH      2945            0.0000000000
     46161      3637  MEOH      H1A           -24.8961556268      -13.7710188273      -10.7035815391  MEOH      2945            0.0000000000
     46162      3637  MEOH      H1B           -23.2399462338      -14.4057975533      -11.0624600274  MEOH      2945            0.0000000000
     46163      3637  MEOH      H1C           -23.8930920825      -13.0062410753      -11.9989552226  MEOH      2945            0.0000000000
     46164      3637  MEOH      LP1A          -23.3856049848      -12.2637690633      -10.1121693444  MEOH      2945            0.0000000000
     46165      3637  MEOH      LP1B          -23.1299092725      -12.7752513128       -9.7872774994  MEOH      2945            0.0000000000
     46166      3638  MEOH      C1            -27.9393082412       32.0618279115      -36.5129115791  MEOH      2946            0.0000000000
     46167      3638  MEOH      DC1           -27.9411296147       32.0514079951      -36.5208943583  MEOH      2946            0.0000000000
     46168      3638  MEOH      O1            -27.9138587408       33.4775574150      -36.6834830021  MEOH      2946            0.0000000000
     46169      3638  MEOH      DO1           -27.9160890052       33.4653899292      -36.6978291110  MEOH      2946            0.0000000000
     46170      3638  MEOH      HO1           -28.6807039398       33.7350115344      -37.2188014280  MEOH      2946            0.0000000000
     46171      3638  MEOH      HO2           -27.8259034103       33.8453199606      -35.7902223623  MEOH      2946            0.0000000000
     46172      3638  MEOH      H1A           -27.0773396935       31.7587731220      -35.8808601430  MEOH      2946            0.0000000000
     46173      3638  MEOH      H1B           -27.8606272755       31.5557222098      -37.4988057541  MEOH      2946            0.0000000000
     46174      3638  MEOH      H1C           -28.8772809135       31.7584938351      -36.0005477384  MEOH      2946            0.0000000000
     46175      3638  MEOH      LP1A          -28.0857421278       33.6328508079      -36.4211091021  MEOH      2946            0.0000000000
     46176      3638  MEOH      LP1B          -27.7280714665       33.5604975301      -36.9682706880  MEOH      2946            0.0000000000
     46177      3639  MEOH      C1            -24.1357023972       29.9851584405      -10.6225673326  MEOH      2947            0.0000000000
     46178      3639  MEOH      DC1           -24.1535468330       29.9912042953      -10.6251805531  MEOH      2947            0.0000000000
     46179      3639  MEOH      O1            -24.1541911516       30.5034031455      -11.9480771231  MEOH      2947            0.0000000000
     46180      3639  MEOH      DO1           -24.1659342789       30.5066842366      -11.9541628969  MEOH      2947            0.0000000000
     46181      3639  MEOH      HO1           -23.3419417605       31.0283451909      -12.0228218645  MEOH      2947            0.0000000000
     46182      3639  MEOH      HO2           -24.2907787293       29.7330225688      -12.5214509983  MEOH      2947            0.0000000000
     46183      3639  MEOH      H1A           -25.0488052623       29.3810295626      -10.4339077015  MEOH      2947            0.0000000000
     46184      3639  MEOH      H1B           -24.0836861217       30.8217167243       -9.8933310564  MEOH      2947            0.0000000000
     46185      3639  MEOH      H1C           -23.2476776708       29.3348214106      -10.4715877535  MEOH      2947            0.0000000000
     46186      3639  MEOH      LP1A          -23.9987558784       30.2785740885      -12.1666904142  MEOH      2947            0.0000000000
     46187      3639  MEOH      LP1B          -24.3227257589       30.8100896318      -11.9543608505  MEOH      2947            0.0000000000
     46188      3640  MEOH      C1             19.2849998434       -3.8293721258       11.0305923868  MEOH      2948            0.0000000000
     46189      3640  MEOH      DC1            19.2811465448       -3.8374452454       11.0189039785  MEOH      2948            0.0000000000
     46190      3640  MEOH      O1             20.0472629941       -3.5583596565       12.2086010131  MEOH      2948            0.0000000000
     46191      3640  MEOH      DO1            20.0346301019       -3.5642407614       12.1990014458  MEOH      2948            0.0000000000
     46192      3640  MEOH      HO1            20.8669486170       -4.0767908858       12.1929632032  MEOH      2948            0.0000000000
     46193      3640  MEOH      HO2            20.1117263139       -2.5917828547       12.2583379871  MEOH      2948            0.0000000000
     46194      3640  MEOH      H1A            18.3484613710       -3.2322226575       11.0556762921  MEOH      2948            0.0000000000
     46195      3640  MEOH      H1B            19.0259663668       -4.9084054404       10.9766501454  MEOH      2948            0.0000000000
     46196      3640  MEOH      H1C            19.8691720174       -3.5408063437       10.1307070270  MEOH      2948            0.0000000000
     46197      3640  MEOH      LP1A           20.2598183048       -3.2857938511       12.1535726418  MEOH      2948            0.0000000000
     46198      3640  MEOH      LP1B           19.9542971121       -3.7782303633       12.4645584648  MEOH      2948            0.0000000000
     46199      3641  MEOH      C1             16.8410633320       11.4528297837        0.7053453042  MEOH      2949            0.0000000000
     46200      3641  MEOH      DC1            16.8602095972       11.4383463842        0.7197832889  MEOH      2949            0.0000000000
     46201      3641  MEOH      O1             15.5913130496       12.0633267497        0.3960418141  MEOH      2949            0.0000000000
     46202      3641  MEOH      DO1            15.6026198473       12.0407156044        0.4081755794  MEOH      2949            0.0000000000
     46203      3641  MEOH      HO1            15.7315633707       12.7463591153       -0.2782701575  MEOH      2949            0.0000000000
     46204      3641  MEOH      HO2            14.9646591493       11.3359534566        0.2577197900  MEOH      2949            0.0000000000
     46205      3641  MEOH      H1A            16.7028391793       10.8055928737        1.5977014365  MEOH      2949            0.0000000000
     46206      3641  MEOH      H1B            17.6067986436       12.2290264811        0.9186270883  MEOH      2949            0.0000000000
     46207      3641  MEOH      H1C            17.1829286911       10.8332176228       -0.1511182666  MEOH      2949            0.0000000000
     46208      3641  MEOH      LP1A           15.4332735561       11.8881966517        0.1374824065  MEOH      2949            0.0000000000
     46209      3641  MEOH      LP1B           15.5341374886       12.3341805951        0.6102126563  MEOH      2949            0.0000000000
     46210      3642  MEOH      C1              8.3312015975       -7.4727939862       25.2407267556  MEOH      2950            0.0000000000
     46211      3642  MEOH      DC1             8.3185453019       -7.4892240843       25.2405583833  MEOH      2950            0.0000000000
     46212      3642  MEOH      O1              7.4855730324       -8.5775720557       24.9059778609  MEOH      2950            0.0000000000
     46213      3642  MEOH      DO1             7.4789258226       -8.5962757282       24.9106573956  MEOH      2950            0.0000000000
     46214      3642  MEOH      HO1             6.7862753097       -8.2087271354       24.3439848712  MEOH      2950            0.0000000000
     46215      3642  MEOH      HO2             8.0718053056       -9.2681675866       24.5591212122  MEOH      2950            0.0000000000
     46216      3642  MEOH      H1A             9.1506352629       -7.8030145380       25.9143764101  MEOH      2950            0.0000000000
     46217      3642  MEOH      H1B             7.7356288918       -6.6834762702       25.7472755646  MEOH      2950            0.0000000000
     46218      3642  MEOH      H1C             8.7845019803       -7.0284197317       24.3289311179  MEOH      2950            0.0000000000
     46219      3642  MEOH      LP1A            7.6012235327       -8.7327895055       24.6143745257  MEOH      2950            0.0000000000
     46220      3642  MEOH      LP1B            7.2351447518       -8.6141900889       25.1477314460  MEOH      2950            0.0000000000
     46221      3643  MEOH      C1             -3.4663043444      -24.3243492003      -18.9254758725  MEOH      2951            0.0000000000
     46222      3643  MEOH      DC1            -3.4567690702      -24.3283973219      -18.9202532838  MEOH      2951            0.0000000000
     46223      3643  MEOH      O1             -2.0788232459      -24.2618199753      -18.5886966274  MEOH      2951            0.0000000000
     46224      3643  MEOH      DO1            -2.0718399897      -24.2676752174      -18.5705255940  MEOH      2951            0.0000000000
     46225      3643  MEOH      HO1            -1.6532174709      -25.0032118329      -19.0470609343  MEOH      2951            0.0000000000
     46226      3643  MEOH      HO2            -1.8086005601      -23.3578039408      -18.8137182046  MEOH      2951            0.0000000000
     46227      3643  MEOH      H1A            -4.0103428197      -23.4610375722      -18.4861170534  MEOH      2951            0.0000000000
     46228      3643  MEOH      H1B            -3.9113198507      -25.2653728502      -18.5372018843  MEOH      2951            0.0000000000
     46229      3643  MEOH      H1C            -3.5826998958      -24.2858589405      -20.0296912390  MEOH      2951            0.0000000000
     46230      3643  MEOH      LP1A           -1.9089624804      -24.0593019443      -18.8181171309  MEOH      2951            0.0000000000
     46231      3643  MEOH      LP1B           -2.0182315102      -24.4445724732      -18.2964122350  MEOH      2951            0.0000000000
     46232      3644  MEOH      C1             23.1529943990       27.6421954923       -9.2525859267  MEOH      2952            0.0000000000
     46233      3644  MEOH      DC1            23.1511944730       27.6448200600       -9.2509587621  MEOH      2952            0.0000000000
     46234      3644  MEOH      O1             24.4454651521       27.7817404138       -9.8370915969  MEOH      2952            0.0000000000
     46235      3644  MEOH      DO1            24.4436584107       27.7851295362       -9.8357569543  MEOH      2952            0.0000000000
     46236      3644  MEOH      HO1            24.9504495870       28.4056492241       -9.2924554630  MEOH      2952            0.0000000000
     46237      3644  MEOH      HO2            24.7742506935       26.8775492300       -9.9605353935  MEOH      2952            0.0000000000
     46238      3644  MEOH      H1A            22.5408581539       26.9385777391       -9.8563510103  MEOH      2952            0.0000000000
     46239      3644  MEOH      H1B            22.6417158286       28.6284270074       -9.2363802883  MEOH      2952            0.0000000000
     46240      3644  MEOH      H1C            23.2465557396       27.2424223918       -8.2202348509  MEOH      2952            0.0000000000
     46241      3644  MEOH      LP1A           24.6625914970       27.5402613104       -9.7065389524  MEOH      2952            0.0000000000
     46242      3644  MEOH      LP1B           24.4424908061       28.0392656578      -10.0740977192  MEOH      2952            0.0000000000
     46243      3645  MEOH      C1             32.0372254704      -15.6693103104       -8.0803209805  MEOH      2953            0.0000000000
     46244      3645  MEOH      DC1            32.0431541242      -15.6689019065       -8.1074274417  MEOH      2953            0.0000000000
     46245      3645  MEOH      O1             32.1285724790      -15.5931908694       -6.6594667502  MEOH      2953            0.0000000000
     46246      3645  MEOH      DO1            32.1311801552      -15.5883704085       -6.6773161371  MEOH      2953            0.0000000000
     46247      3645  MEOH      HO1            31.8003722969      -16.4240031605       -6.2813985315  MEOH      2953            0.0000000000
     46248      3645  MEOH      HO2            33.0316354991      -15.2943629666       -6.4695218472  MEOH      2953            0.0000000000
     46249      3645  MEOH      H1A            32.2842963098      -14.6758800536       -8.5120307508  MEOH      2953            0.0000000000
     46250      3645  MEOH      H1B            31.0065379142      -15.9520010242       -8.3837845234  MEOH      2953            0.0000000000
     46251      3645  MEOH      H1C            32.7614448011      -16.4249165903       -8.4529957877  MEOH      2953            0.0000000000
     46252      3645  MEOH      LP1A           32.4420002289      -15.7072474762       -6.5533812374  MEOH      2953            0.0000000000
     46253      3645  MEOH      LP1B           31.8348336612      -15.4557630059       -6.5278191553  MEOH      2953            0.0000000000
     46254      3646  MEOH      C1             18.2677291707      -20.6818466050        1.7789635002  MEOH      2954            0.0000000000
     46255      3646  MEOH      DC1            18.2675306157      -20.6799901718        1.7682946252  MEOH      2954            0.0000000000
     46256      3646  MEOH      O1             18.0033739988      -19.2885562254        1.9086835850  MEOH      2954            0.0000000000
     46257      3646  MEOH      DO1            18.0039517388      -19.2887268814        1.8934997420  MEOH      2954            0.0000000000
     46258      3646  MEOH      HO1            17.1343328083      -19.1865450671        2.3273255954  MEOH      2954            0.0000000000
     46259      3646  MEOH      HO2            18.7788323993      -18.9104115256        2.3520467044  MEOH      2954            0.0000000000
     46260      3646  MEOH      H1A            19.2685618168      -20.8133544496        1.3148937828  MEOH      2954            0.0000000000
     46261      3646  MEOH      H1B            17.5017739535      -21.1590342399        1.1309468593  MEOH      2954            0.0000000000
     46262      3646  MEOH      H1C            18.2746945740      -21.1614934494        2.7810669818  MEOH      2954            0.0000000000
     46263      3646  MEOH      LP1A           18.1288800225      -19.1707654837        2.2134352531  MEOH      2954            0.0000000000
     46264      3646  MEOH      LP1B           17.8435459648      -19.1697334203        1.6208709020  MEOH      2954            0.0000000000
     46265      3647  MEOH      C1            -27.9834946982      -13.1321178973       16.3416370698  MEOH      2955            0.0000000000
     46266      3647  MEOH      DC1           -27.9867539674      -13.1366593320       16.3338147701  MEOH      2955            0.0000000000
     46267      3647  MEOH      O1            -28.4146214910      -11.8327390678       15.9284040741  MEOH      2955            0.0000000000
     46268      3647  MEOH      DO1           -28.4132563380      -11.8361101729       15.9271406797  MEOH      2955            0.0000000000
     46269      3647  MEOH      HO1           -29.3264714989      -11.7073261683       16.2345105401  MEOH      2955            0.0000000000
     46270      3647  MEOH      HO2           -27.7208704827      -11.2220050967       16.2227058836  MEOH      2955            0.0000000000
     46271      3647  MEOH      H1A           -26.9687247504      -13.3295618356       15.9347232641  MEOH      2955            0.0000000000
     46272      3647  MEOH      H1B           -28.6813820696      -13.9161790729       15.9776009593  MEOH      2955            0.0000000000
     46273      3647  MEOH      H1C           -27.9370424595      -13.1817975153       17.4505532637  MEOH      2955            0.0000000000
     46274      3647  MEOH      LP1A          -28.3335106466      -11.5962016897       16.1732940486  MEOH      2955            0.0000000000
     46275      3647  MEOH      LP1B          -28.5576881082      -11.8499010463       15.6094410519  MEOH      2955            0.0000000000
     46276      3648  MEOH      C1             15.0947704839       -6.2322587279      -12.5802564909  MEOH      2956            0.0000000000
     46277      3648  MEOH      DC1            15.1083200696       -6.2586320718      -12.5754334358  MEOH      2956            0.0000000000
     46278      3648  MEOH      O1             14.3308231324       -6.8254957022      -13.6334727022  MEOH      2956            0.0000000000
     46279      3648  MEOH      DO1            14.3477908620       -6.8476643250      -13.6234215048  MEOH      2956            0.0000000000
     46280      3648  MEOH      HO1            14.0116051979       -6.1092722283      -14.2044576806  MEOH      2956            0.0000000000
     46281      3648  MEOH      HO2            14.8528725213       -7.5627491859      -13.9867739011  MEOH      2956            0.0000000000
     46282      3648  MEOH      H1A            15.3523817332       -6.9930888822      -11.8127312988  MEOH      2956            0.0000000000
     46283      3648  MEOH      H1B            14.4949919766       -5.4337695015      -12.0934282880  MEOH      2956            0.0000000000
     46284      3648  MEOH      H1C            16.0200273526       -5.7704690920      -12.9864227866  MEOH      2956            0.0000000000
     46285      3648  MEOH      LP1A           14.5398062002       -6.9052388054      -13.9026698695  MEOH      2956            0.0000000000
     46286      3648  MEOH      LP1B           13.9959493665       -6.8554852216      -13.5362091960  MEOH      2956            0.0000000000
     46287      3649  MEOH      C1              9.5844553732      -17.4714413059      -17.5237609133  MEOH      2957            0.0000000000
     46288      3649  MEOH      DC1             9.5789587228      -17.4828646928      -17.5321430503  MEOH      2957            0.0000000000
     46289      3649  MEOH      O1              8.7717806597      -18.6412400254      -17.5639024389  MEOH      2957            0.0000000000
     46290      3649  MEOH      DO1             8.7736462866      -18.6621660669      -17.5646079023  MEOH      2957            0.0000000000
     46291      3649  MEOH      HO1             9.2087173998      -19.2490358186      -18.1808064501  MEOH      2957            0.0000000000
     46292      3649  MEOH      HO2             8.6114075069      -18.8756911145      -16.6364256791  MEOH      2957            0.0000000000
     46293      3649  MEOH      H1A             9.0723179438      -16.6906220115      -16.9217995487  MEOH      2957            0.0000000000
     46294      3649  MEOH      H1B             9.7574275648      -17.0849381303      -18.5509010774  MEOH      2957            0.0000000000
     46295      3649  MEOH      H1C            10.5626009550      -17.7004497192      -17.0493061027  MEOH      2957            0.0000000000
     46296      3649  MEOH      LP1A            8.8724411631      -18.8655355673      -17.3147860546  MEOH      2957            0.0000000000
     46297      3649  MEOH      LP1B            8.5273230156      -18.6087065976      -17.8122611237  MEOH      2957            0.0000000000
     46298      3650  MEOH      C1            -35.5701547476      -30.1522027674       -5.0732348948  MEOH      2958            0.0000000000
     46299      3650  MEOH      DC1           -35.5598936540      -30.1441990637       -5.0665753808  MEOH      2958            0.0000000000
     46300      3650  MEOH      O1            -34.7510204343      -31.2212651867       -4.6041506506  MEOH      2958            0.0000000000
     46301      3650  MEOH      DO1           -34.7311720947      -31.2103238180       -4.6043096379  MEOH      2958            0.0000000000
     46302      3650  MEOH      HO1           -35.2061316289      -32.0390346275       -4.8591544615  MEOH      2958            0.0000000000
     46303      3650  MEOH      HO2           -33.8537636806      -31.0325054312       -4.9206946010  MEOH      2958            0.0000000000
     46304      3650  MEOH      H1A           -35.2017704419      -29.1870857182       -4.6643790710  MEOH      2958            0.0000000000
     46305      3650  MEOH      H1B           -36.6236121394      -30.3114410442       -4.7582877616  MEOH      2958            0.0000000000
     46306      3650  MEOH      H1C           -35.5225174193      -30.1072059752       -6.1823007063  MEOH      2958            0.0000000000
     46307      3650  MEOH      LP1A          -34.5162211702      -31.3083383812       -4.8486656080  MEOH      2958            0.0000000000
     46308      3650  MEOH      LP1B          -34.8408109597      -31.3060615066       -4.2766643980  MEOH      2958            0.0000000000
     46309      3651  MEOH      C1             11.4946984861       31.3531322947       27.1287308468  MEOH      2959            0.0000000000
     46310      3651  MEOH      DC1            11.4876510922       31.3406239336       27.1353142906  MEOH      2959            0.0000000000
     46311      3651  MEOH      O1             10.9974827226       32.1796708456       26.0774547699  MEOH      2959            0.0000000000
     46312      3651  MEOH      DO1            10.9870781354       32.1724964306       26.0887886718  MEOH      2959            0.0000000000
     46313      3651  MEOH      HO1            10.2385003117       32.6814391395       26.4137199617  MEOH      2959            0.0000000000
     46314      3651  MEOH      HO2            11.7690370346       32.6584714721       25.7363478887  MEOH      2959            0.0000000000
     46315      3651  MEOH      H1A            12.3226246004       30.7276453544       26.7317101454  MEOH      2959            0.0000000000
     46316      3651  MEOH      H1B            10.6904809407       30.6926482610       27.5177243954  MEOH      2959            0.0000000000
     46317      3651  MEOH      H1C            11.8980294566       31.9860260415       27.9479320644  MEOH      2959            0.0000000000
     46318      3651  MEOH      LP1A           11.1616162159       32.4887849508       26.0803986255  MEOH      2959            0.0000000000
     46319      3651  MEOH      LP1B           10.7580475117       32.0052156977       25.8910783198  MEOH      2959            0.0000000000
     46320      3652  MEOH      C1             35.6273441869       -4.7318234036      -12.4391132931  MEOH      2960            0.0000000000
     46321      3652  MEOH      DC1            35.6241317464       -4.7460016669      -12.4407798802  MEOH      2960            0.0000000000
     46322      3652  MEOH      O1             36.5638403798       -3.7343218349      -12.0447004401  MEOH      2960            0.0000000000
     46323      3652  MEOH      DO1            36.5729683290       -3.7488261054      -12.0639089229  MEOH      2960            0.0000000000
     46324      3652  MEOH      HO1            37.3011010482       -4.1299171157      -11.5539346297  MEOH      2960            0.0000000000
     46325      3652  MEOH      HO2            36.7156311158       -3.1627586687      -12.8135795725  MEOH      2960            0.0000000000
     46326      3652  MEOH      H1A            34.6778883564       -4.2228663744      -12.7108068159  MEOH      2960            0.0000000000
     46327      3652  MEOH      H1B            35.4320528588       -5.4228961580      -11.5914100750  MEOH      2960            0.0000000000
     46328      3652  MEOH      H1C            36.0132964536       -5.2907919710      -13.3182697004  MEOH      2960            0.0000000000
     46329      3652  MEOH      LP1A           36.8036952674       -3.6894174722      -12.2956052650  MEOH      2960            0.0000000000
     46330      3652  MEOH      LP1B           36.4749735726       -3.6034570950      -11.7324871950  MEOH      2960            0.0000000000
     46331      3653  MEOH      C1             13.2650927803       29.4714536539        8.5141167095  MEOH      2961            0.0000000000
     46332      3653  MEOH      DC1            13.2662920241       29.4700809787        8.5313185121  MEOH      2961            0.0000000000
     46333      3653  MEOH      O1             13.2919121003       30.8402901042        8.8912633656  MEOH      2961            0.0000000000
     46334      3653  MEOH      DO1            13.2980208708       30.8313033721        8.9202668152  MEOH      2961            0.0000000000
     46335      3653  MEOH      HO1            13.5258962278       31.3406655830        8.0939078553  MEOH      2961            0.0000000000
     46336      3653  MEOH      HO2            12.4400080211       31.0055568153        9.3246758182  MEOH      2961            0.0000000000
     46337      3653  MEOH      H1A            12.9548092569       28.8432409007        9.3763196278  MEOH      2961            0.0000000000
     46338      3653  MEOH      H1B            14.2777773629       29.1615822789        8.1783032686  MEOH      2961            0.0000000000
     46339      3653  MEOH      H1C            12.5436978687       29.3275861103        7.6815228633  MEOH      2961            0.0000000000
     46340      3653  MEOH      LP1A           12.9740809876       30.9815152885        8.8520354277  MEOH      2961            0.0000000000
     46341      3653  MEOH      LP1B           13.6114411220       30.9269329617        9.0048160825  MEOH      2961            0.0000000000
     46342      3654  MEOH      C1              9.0734193439       -1.9554826768       -3.4172655221  MEOH      2962            0.0000000000
     46343      3654  MEOH      DC1             9.0820344463       -1.9653367327       -3.4032874873  MEOH      2962            0.0000000000
     46344      3654  MEOH      O1              8.6199873209       -3.2484212112       -3.8148074373  MEOH      2962            0.0000000000
     46345      3654  MEOH      DO1             8.6381750398       -3.2643646203       -3.7913396770  MEOH      2962            0.0000000000
     46346      3654  MEOH      HO1             9.3346229142       -3.7346121368       -4.2550509545  MEOH      2962            0.0000000000
     46347      3654  MEOH      HO2             8.0330550700       -3.6012725651       -3.1278529592  MEOH      2962            0.0000000000
     46348      3654  MEOH      H1A             8.1960105608       -1.2861776793       -3.2887912129  MEOH      2962            0.0000000000
     46349      3654  MEOH      H1B             9.7333901893       -1.5226026917       -4.1991698651  MEOH      2962            0.0000000000
     46350      3654  MEOH      H1C             9.6231078053       -2.0292226996       -2.4545994295  MEOH      2962            0.0000000000
     46351      3654  MEOH      LP1A            8.6719913388       -3.4783030337       -3.5560605923  MEOH      2962            0.0000000000
     46352      3654  MEOH      LP1B            8.4815258318       -3.2332242579       -4.1358953826  MEOH      2962            0.0000000000
     46353      3655  MEOH      C1             35.6852864836        5.5740191788      -34.5014125555  MEOH      2963            0.0000000000
     46354      3655  MEOH      DC1            35.6900530410        5.5732360737      -34.5003537041  MEOH      2963            0.0000000000
     46355      3655  MEOH      O1             36.7333359646        6.4648485746      -34.8958128382  MEOH      2963            0.0000000000
     46356      3655  MEOH      DO1            36.7326995720        6.4656758444      -34.9016171101  MEOH      2963            0.0000000000
     46357      3655  MEOH      HO1            36.9586796399        7.0087544495      -34.1249129563  MEOH      2963            0.0000000000
     46358      3655  MEOH      HO2            37.4096609131        5.9092106411      -35.3138451944  MEOH      2963            0.0000000000
     46359      3655  MEOH      H1A            35.3334168278        4.9977652390      -35.3837051059  MEOH      2963            0.0000000000
     46360      3655  MEOH      H1B            34.8295354830        6.1487349334      -34.0870298502  MEOH      2963            0.0000000000
     46361      3655  MEOH      H1C            36.0577659669        4.8623651528      -33.7338654338  MEOH      2963            0.0000000000
     46362      3655  MEOH      LP1A           37.0447867949        6.3143774286      -34.8423636615  MEOH      2963            0.0000000000
     46363      3655  MEOH      LP1B           36.5970893307        6.7598692943      -35.0258114142  MEOH      2963            0.0000000000
     46364      3656  MEOH      C1              6.2782404573        2.8570912637       -4.8563484405  MEOH      2964            0.0000000000
     46365      3656  MEOH      DC1             6.2754882671        2.8619916483       -4.8414507876  MEOH      2964            0.0000000000
     46366      3656  MEOH      O1              5.7412826972        2.8945917847       -3.5323806481  MEOH      2964            0.0000000000
     46367      3656  MEOH      DO1             5.7475384245        2.8904367780       -3.5164323561  MEOH      2964            0.0000000000
     46368      3656  MEOH      HO1             6.4462506117        3.2382977710       -2.9616036028  MEOH      2964            0.0000000000
     46369      3656  MEOH      HO2             4.9064624507        3.3827997671       -3.6074014586  MEOH      2964            0.0000000000
     46370      3656  MEOH      H1A             5.5176989724        2.4705505128       -5.5680252616  MEOH      2964            0.0000000000
     46371      3656  MEOH      H1B             7.1628886232        2.1858651799       -4.8906145885  MEOH      2964            0.0000000000
     46372      3656  MEOH      H1C             6.5763316928        3.8784274162       -5.1762469859  MEOH      2964            0.0000000000
     46373      3656  MEOH      LP1A            5.5841348409        3.2021318937       -3.4756036054  MEOH      2964            0.0000000000
     46374      3656  MEOH      LP1B            5.7985225812        2.5891829376       -3.3712936163  MEOH      2964            0.0000000000
     46375      3657  MEOH      C1             22.4503501753      -19.0137934197      -32.6724052476  MEOH      2965            0.0000000000
     46376      3657  MEOH      DC1            22.4420753973      -19.0074254125      -32.6733980106  MEOH      2965            0.0000000000
     46377      3657  MEOH      O1             21.6969377868      -18.4409367409      -31.6031226198  MEOH      2965            0.0000000000
     46378      3657  MEOH      DO1            21.6788084762      -18.4345091599      -31.6082979068  MEOH      2965            0.0000000000
     46379      3657  MEOH      HO1            21.5051423514      -17.5218495018      -31.8468297368  MEOH      2965            0.0000000000
     46380      3657  MEOH      HO2            20.9948021559      -19.0751322485      -31.3893432619  MEOH      2965            0.0000000000
     46381      3657  MEOH      H1A            22.8204045068      -20.0184580135      -32.3757070060  MEOH      2965            0.0000000000
     46382      3657  MEOH      H1B            23.3231791893      -18.3660688860      -32.9024996644  MEOH      2965            0.0000000000
     46383      3657  MEOH      H1C            21.8158391784      -19.1108850918      -33.5792073230  MEOH      2965            0.0000000000
     46384      3657  MEOH      LP1A           21.3550440824      -18.4945116070      -31.6554526168  MEOH      2965            0.0000000000
     46385      3657  MEOH      LP1B           21.9130135719      -18.3012780104      -31.3658323037  MEOH      2965            0.0000000000
     46386      3658  MEOH      C1            -36.8200336757      -26.1811908934      -12.2708908107  MEOH      2966            0.0000000000
     46387      3658  MEOH      DC1           -36.8075897542      -26.1585288665      -12.2418597173  MEOH      2966            0.0000000000
     46388      3658  MEOH      O1            -37.2697687099      -26.9493920905      -13.3693885666  MEOH      2966            0.0000000000
     46389      3658  MEOH      DO1           -37.2485522739      -26.9242011347      -13.3356519303  MEOH      2966            0.0000000000
     46390      3658  MEOH      HO1           -36.8601944350      -26.6938041689      -14.2107111727  MEOH      2966            0.0000000000
     46391      3658  MEOH      HO2           -37.2540964008      -27.8790707614      -13.0930700028  MEOH      2966            0.0000000000
     46392      3658  MEOH      H1A           -37.4785702986      -26.4135339571      -11.4067917321  MEOH      2966            0.0000000000
     46393      3658  MEOH      H1B           -36.8884775943      -25.0986243541      -12.5110701563  MEOH      2966            0.0000000000
     46394      3658  MEOH      H1C           -35.7779946892      -26.4763815874      -12.0232252981  MEOH      2966            0.0000000000
     46395      3658  MEOH      LP1A          -37.0691536159      -27.2337478680      -13.4067432972  MEOH      2966            0.0000000000
     46396      3658  MEOH      LP1B          -37.5533937927      -26.8011035059      -13.5110476928  MEOH      2966            0.0000000000
     46397      3659  MEOH      C1            -18.9362129218      -25.8518796282       25.6375277611  MEOH      2967            0.0000000000
     46398      3659  MEOH      DC1           -18.9454579157      -25.8558400739       25.6380119832  MEOH      2967            0.0000000000
     46399      3659  MEOH      O1            -17.6588071999      -26.2880806464       26.1167197407  MEOH      2967            0.0000000000
     46400      3659  MEOH      DO1           -17.6583607209      -26.2790782481       26.1104648201  MEOH      2967            0.0000000000
     46401      3659  MEOH      HO1           -17.7213243329      -26.4941588933       27.0625121937  MEOH      2967            0.0000000000
     46402      3659  MEOH      HO2           -17.3385369809      -26.9474733480       25.4814810042  MEOH      2967            0.0000000000
     46403      3659  MEOH      H1A           -18.8344053319      -25.4912071225       24.5916446133  MEOH      2967            0.0000000000
     46404      3659  MEOH      H1B           -19.3196704315      -25.0108473960       26.2539254594  MEOH      2967            0.0000000000
     46405      3659  MEOH      H1C           -19.6668644358      -26.6881483135       25.6710546544  MEOH      2967            0.0000000000
     46406      3659  MEOH      LP1A          -17.6286269610      -26.6346846101       26.0785773032  MEOH      2967            0.0000000000
     46407      3659  MEOH      LP1B          -17.4710682480      -26.0130355038       26.2244427905  MEOH      2967            0.0000000000
     46408      3660  MEOH      C1             36.1191455760       -2.0310478797       -1.0876089602  MEOH      2968            0.0000000000
     46409      3660  MEOH      DC1            36.1156022648       -2.0258206184       -1.0886174524  MEOH      2968            0.0000000000
     46410      3660  MEOH      O1             36.0265586701       -2.2523538780        0.3065886719  MEOH      2968            0.0000000000
     46411      3660  MEOH      DO1            36.0254466219       -2.2502180798        0.3062520243  MEOH      2968            0.0000000000
     46412      3660  MEOH      HO1            36.9027622450       -2.5601488953        0.5866413859  MEOH      2968            0.0000000000
     46413      3660  MEOH      HO2            35.6540828004       -1.4314601417        0.6647718670  MEOH      2968            0.0000000000
     46414      3660  MEOH      H1A            35.2189381728       -2.3866073918       -1.6330675409  MEOH      2968            0.0000000000
     46415      3660  MEOH      H1B            36.4555234874       -2.9681819458       -1.5805091977  MEOH      2968            0.0000000000
     46416      3660  MEOH      H1C            35.6729495188       -1.0651713475       -1.4074723734  MEOH      2968            0.0000000000
     46417      3660  MEOH      LP1A           36.1047366368       -1.9584931597        0.4798921161  MEOH      2968            0.0000000000
     46418      3660  MEOH      LP1B           35.9217109561       -2.5803921651        0.3690213484  MEOH      2968            0.0000000000
     46419      3661  MEOH      C1             36.5453244894       29.3100057863      -27.3236094927  MEOH      2969            0.0000000000
     46420      3661  MEOH      DC1            36.5524621025       29.3124747595      -27.3213292908  MEOH      2969            0.0000000000
     46421      3661  MEOH      O1             36.6974121055       28.1478099564      -26.5044680841  MEOH      2969            0.0000000000
     46422      3661  MEOH      DO1            36.7123300337       28.1460643830      -26.5119219584  MEOH      2969            0.0000000000
     46423      3661  MEOH      HO1            36.4751564834       27.3708845026      -27.0410212294  MEOH      2969            0.0000000000
     46424      3661  MEOH      HO2            37.5378253964       28.2383391542      -26.0286425216  MEOH      2969            0.0000000000
     46425      3661  MEOH      H1A            36.3834969684       30.2035937957      -26.6835834583  MEOH      2969            0.0000000000
     46426      3661  MEOH      H1B            35.6530040374       29.2034621093      -27.9768580337  MEOH      2969            0.0000000000
     46427      3661  MEOH      H1C            37.4518429876       29.4607280596      -27.9479715742  MEOH      2969            0.0000000000
     46428      3661  MEOH      LP1A           37.0258896362       28.0287874122      -26.5253521875  MEOH      2969            0.0000000000
     46429      3661  MEOH      LP1B           36.3975621094       28.0788822511      -26.3376179979  MEOH      2969            0.0000000000
     46430      3662  MEOH      C1            -24.8321583572       -2.7705028087       10.9488071720  MEOH      2970            0.0000000000
     46431      3662  MEOH      DC1           -24.8415500134       -2.7885303578       10.9338036290  MEOH      2970            0.0000000000
     46432      3662  MEOH      O1            -24.6465469250       -1.4096342507       11.2884379125  MEOH      2970            0.0000000000
     46433      3662  MEOH      DO1           -24.6666585144       -1.4175701330       11.2748914800  MEOH      2970            0.0000000000
     46434      3662  MEOH      HO1           -25.4734035972       -1.0779239127       11.6720735407  MEOH      2970            0.0000000000
     46435      3662  MEOH      HO2           -23.8428321563       -1.3873129759       11.8310651621  MEOH      2970            0.0000000000
     46436      3662  MEOH      H1A           -23.8762332648       -3.1781832522       10.5559651233  MEOH      2970            0.0000000000
     46437      3662  MEOH      H1B           -25.6161202030       -2.8326964891       10.1640417482  MEOH      2970            0.0000000000
     46438      3662  MEOH      H1C           -25.1299890898       -3.3474503303       11.8503333295  MEOH      2970            0.0000000000
     46439      3662  MEOH      LP1A          -24.5221878444       -1.3835306575       11.6145566355  MEOH      2970            0.0000000000
     46440      3662  MEOH      LP1B          -24.7287027014       -1.2059616382       11.0159165458  MEOH      2970            0.0000000000
     46441      3663  MEOH      C1             -2.2389684693       12.3363144451       30.1968235589  MEOH      2971            0.0000000000
     46442      3663  MEOH      DC1            -2.2492080181       12.3627474161       30.2102550278  MEOH      2971            0.0000000000
     46443      3663  MEOH      O1             -1.8992619417       12.6734975617       31.5442925239  MEOH      2971            0.0000000000
     46444      3663  MEOH      DO1            -1.9005889768       12.6952717787       31.5596764961  MEOH      2971            0.0000000000
     46445      3663  MEOH      HO1            -1.5304441400       13.5705980045       31.5351151194  MEOH      2971            0.0000000000
     46446      3663  MEOH      HO2            -2.6519569966       12.4131899494       32.0979983150  MEOH      2971            0.0000000000
     46447      3663  MEOH      H1A            -2.4187574883       11.2432360911       30.1121086184  MEOH      2971            0.0000000000
     46448      3663  MEOH      H1B            -1.4028862768       12.5948899695       29.5124068250  MEOH      2971            0.0000000000
     46449      3663  MEOH      H1C            -3.1592864490       12.8799195630       29.8937900723  MEOH      2971            0.0000000000
     46450      3663  MEOH      LP1A           -2.1738249155       12.8208499575       31.7036739686  MEOH      2971            0.0000000000
     46451      3663  MEOH      LP1B           -1.5715414697       12.5723208133       31.6140245669  MEOH      2971            0.0000000000
     46452      3664  MEOH      C1            -11.9688856393       10.2633294977      -22.9770258014  MEOH      2972            0.0000000000
     46453      3664  MEOH      DC1           -11.9806830319       10.2796241331      -22.9709872545  MEOH      2972            0.0000000000
     46454      3664  MEOH      O1            -11.3140577236        9.0065399803      -23.1366412418  MEOH      2972            0.0000000000
     46455      3664  MEOH      DO1           -11.3316514485        9.0168921163      -23.1190976511  MEOH      2972            0.0000000000
     46456      3664  MEOH      HO1           -10.3851261614        9.1392185256      -23.3823698671  MEOH      2972            0.0000000000
     46457      3664  MEOH      HO2           -11.5838815418        8.4443263421      -22.3936668599  MEOH      2972            0.0000000000
     46458      3664  MEOH      H1A           -13.0668028644       10.0933905653      -22.9726069686  MEOH      2972            0.0000000000
     46459      3664  MEOH      H1B           -11.7209260645       10.9365466414      -23.8253274745  MEOH      2972            0.0000000000
     46460      3664  MEOH      H1C           -11.6750355560       10.7241317234      -22.0097438166  MEOH      2972            0.0000000000
     46461      3664  MEOH      LP1A          -11.1803135861        8.9015376244      -22.8307212997  MEOH      2972            0.0000000000
     46462      3664  MEOH      LP1B          -11.3476410978        8.8951295453      -23.4667319444  MEOH      2972            0.0000000000
     46463      3665  MEOH      C1              6.5330234664       12.4779316531       35.4114085445  MEOH      2973            0.0000000000
     46464      3665  MEOH      DC1             6.5487734304       12.4870201331       35.4051766119  MEOH      2973            0.0000000000
     46465      3665  MEOH      O1              7.2624257954       11.5989089346       36.2570893034  MEOH      2973            0.0000000000
     46466      3665  MEOH      DO1             7.2621289632       11.6080711146       36.2531150328  MEOH      2973            0.0000000000
     46467      3665  MEOH      HO1             7.6307607444       10.8475945825       35.7664202601  MEOH      2973            0.0000000000
     46468      3665  MEOH      HO2             7.8378135014       12.1875288368       36.7702711411  MEOH      2973            0.0000000000
     46469      3665  MEOH      H1A             6.3825308127       12.1325477598       34.3662373012  MEOH      2973            0.0000000000
     46470      3665  MEOH      H1B             5.5462991184       12.7662749643       35.8327803469  MEOH      2973            0.0000000000
     46471      3665  MEOH      H1C             7.1456344084       13.4027428606       35.3501462771  MEOH      2973            0.0000000000
     46472      3665  MEOH      LP1A            7.5969224010       11.7003237010       36.2751742689  MEOH      2973            0.0000000000
     46473      3665  MEOH      LP1B            7.0484713249       11.3561467991       36.3904685750  MEOH      2973            0.0000000000
     46474      3666  MEOH      C1            -28.1966448288      -13.1066952683      -33.6728129323  MEOH      2974            0.0000000000
     46475      3666  MEOH      DC1           -28.2011661854      -13.1228634771      -33.6918691928  MEOH      2974            0.0000000000
     46476      3666  MEOH      O1            -28.8003934413      -13.3992659367      -34.9350496518  MEOH      2974            0.0000000000
     46477      3666  MEOH      DO1           -28.8038076489      -13.3950102388      -34.9520954782  MEOH      2974            0.0000000000
     46478      3666  MEOH      HO1           -29.4174397368      -14.1313123016      -34.7792870478  MEOH      2974            0.0000000000
     46479      3666  MEOH      HO2           -29.1101578163      -12.5488219819      -35.2838921848  MEOH      2974            0.0000000000
     46480      3666  MEOH      H1A           -27.3834671079      -12.3612342930      -33.8045358567  MEOH      2974            0.0000000000
     46481      3666  MEOH      H1B           -27.7653855769      -14.0235564678      -33.2170695844  MEOH      2974            0.0000000000
     46482      3666  MEOH      H1C           -28.9531009341      -12.6751154864      -32.9830056747  MEOH      2974            0.0000000000
     46483      3666  MEOH      LP1A          -29.0874872074      -13.2038643065      -34.9785855264  MEOH      2974            0.0000000000
     46484      3666  MEOH      LP1B          -28.6082304885      -13.6353294610      -35.1078136877  MEOH      2974            0.0000000000
     46485      3667  MEOH      C1            -14.0461854405        4.8725755304       36.7810019653  MEOH      2975            0.0000000000
     46486      3667  MEOH      DC1           -14.0371727874        4.8885840878       36.7750987023  MEOH      2975            0.0000000000
     46487      3667  MEOH      O1            -14.9859908447        3.8263611617       36.7284073167  MEOH      2975            0.0000000000
     46488      3667  MEOH      DO1           -14.9791845766        3.8381682976       36.7197194397  MEOH      2975            0.0000000000
     46489      3667  MEOH      HO1           -14.7843837975        3.2559467102       37.4866170192  MEOH      2975            0.0000000000
     46490      3667  MEOH      HO2           -15.8381419844        4.2862207920       36.6712447801  MEOH      2975            0.0000000000
     46491      3667  MEOH      H1A           -14.2033666215        5.5887380198       35.9463006020  MEOH      2975            0.0000000000
     46492      3667  MEOH      H1B           -13.0147721820        4.4601109053       36.7614923967  MEOH      2975            0.0000000000
     46493      3667  MEOH      H1C           -14.2058682440        5.3902872247       37.7509488741  MEOH      2975            0.0000000000
     46494      3667  MEOH      LP1A          -15.2741535813        3.9152594913       36.9060567587  MEOH      2975            0.0000000000
     46495      3667  MEOH      LP1B          -14.8623276568        3.5641053755       36.5323733437  MEOH      2975            0.0000000000
     46496      3668  MEOH      C1            -14.7129921703        9.8876322567       -3.4208822272  MEOH      2976            0.0000000000
     46497      3668  MEOH      DC1           -14.7260260107        9.8840133981       -3.4152651139  MEOH      2976            0.0000000000
     46498      3668  MEOH      O1            -14.0857928529        8.7845222906       -2.7883331792  MEOH      2976            0.0000000000
     46499      3668  MEOH      DO1           -14.1062437018        8.7863667722       -2.7809477213  MEOH      2976            0.0000000000
     46500      3668  MEOH      HO1           -13.7761179807        8.1735528137       -3.4751503114  MEOH      2976            0.0000000000
     46501      3668  MEOH      HO2           -13.4329261162        9.1729452761       -2.1851809526  MEOH      2976            0.0000000000
     46502      3668  MEOH      H1A           -14.9950293467       10.6482539983       -2.6617836843  MEOH      2976            0.0000000000
     46503      3668  MEOH      H1B           -15.6488304983        9.5549055215       -3.9186980000  MEOH      2976            0.0000000000
     46504      3668  MEOH      H1C           -14.0234324294       10.3368405802       -4.1672335164  MEOH      2976            0.0000000000
     46505      3668  MEOH      LP1A          -13.7456603906        8.8516065846       -2.7402748226  MEOH      2976            0.0000000000
     46506      3668  MEOH      LP1B          -14.3221939698        8.5358237347       -2.7193147744  MEOH      2976            0.0000000000
     46507      3669  MEOH      C1              1.0313093108      -12.5575525024      -26.3431159119  MEOH      2977            0.0000000000
     46508      3669  MEOH      DC1             1.0306016127      -12.5552065833      -26.3484537884  MEOH      2977            0.0000000000
     46509      3669  MEOH      O1              1.7226407235      -12.2504858279      -27.5582443690  MEOH      2977            0.0000000000
     46510      3669  MEOH      DO1             1.7142200815      -12.2295855919      -27.5657499290  MEOH      2977            0.0000000000
     46511      3669  MEOH      HO1             2.0518648752      -13.0925768405      -27.9095194528  MEOH      2977            0.0000000000
     46512      3669  MEOH      HO2             1.1328956459      -11.6860373812      -28.0821705997  MEOH      2977            0.0000000000
     46513      3669  MEOH      H1A             0.7783533768      -11.6172106892      -25.8082406252  MEOH      2977            0.0000000000
     46514      3669  MEOH      H1B             1.6714552228      -13.1788962476      -25.6809481368  MEOH      2977            0.0000000000
     46515      3669  MEOH      H1C             0.0942460091      -13.1123216497      -26.5632625941  MEOH      2977            0.0000000000
     46516      3669  MEOH      LP1A            1.4997463691      -12.2580854632      -27.8279856383  MEOH      2977            0.0000000000
     46517      3669  MEOH      LP1B            2.0587545097      -12.1803945296      -27.4903125457  MEOH      2977            0.0000000000
     46518      3670  MEOH      C1            -10.9351766688        8.8117194673       32.7190806285  MEOH      2978            0.0000000000
     46519      3670  MEOH      DC1           -10.9269882526        8.8304703245       32.7208876064  MEOH      2978            0.0000000000
     46520      3670  MEOH      O1            -11.3933210573        7.4720060135       32.5680744716  MEOH      2978            0.0000000000
     46521      3670  MEOH      DO1           -11.3834475862        7.4839319653       32.5716154962  MEOH      2978            0.0000000000
     46522      3670  MEOH      HO1           -11.7212438125        7.3342358107       31.6656410733  MEOH      2978            0.0000000000
     46523      3670  MEOH      HO2           -10.7215748878        6.8995968748       32.9705727471  MEOH      2978            0.0000000000
     46524      3670  MEOH      H1A           -10.7071755931        8.9900877025       33.7917041796  MEOH      2978            0.0000000000
     46525      3670  MEOH      H1B           -11.7265504403        9.5146134697       32.3814586852  MEOH      2978            0.0000000000
     46526      3670  MEOH      H1C           -10.0038677901        8.9743400904       32.1355231713  MEOH      2978            0.0000000000
     46527      3670  MEOH      LP1A          -11.1295058441        7.2661132185       32.4655576913  MEOH      2978            0.0000000000
     46528      3670  MEOH      LP1B          -11.7313794019        7.4504576625       32.6561211880  MEOH      2978            0.0000000000
     46529      3671  MEOH      C1              6.9881274506      -14.5369168371      -23.0754875946  MEOH      2979            0.0000000000
     46530      3671  MEOH      DC1             6.9861487708      -14.5217910646      -23.0754985964  MEOH      2979            0.0000000000
     46531      3671  MEOH      O1              6.0949292520      -13.4479275772      -22.8682762197  MEOH      2979            0.0000000000
     46532      3671  MEOH      DO1             6.0971495423      -13.4325571251      -22.8665691897  MEOH      2979            0.0000000000
     46533      3671  MEOH      HO1             5.2255376461      -13.8563128193      -22.7330736693  MEOH      2979            0.0000000000
     46534      3671  MEOH      HO2             6.5028050221      -12.9042176639      -22.1762380073  MEOH      2979            0.0000000000
     46535      3671  MEOH      H1A             8.0325130261      -14.1963973761      -23.2416991074  MEOH      2979            0.0000000000
     46536      3671  MEOH      H1B             6.6652061833      -15.0866461464      -23.9853450239  MEOH      2979            0.0000000000
     46537      3671  MEOH      H1C             6.9666742112      -15.2134527675      -22.1944882213  MEOH      2979            0.0000000000
     46538      3671  MEOH      LP1A            6.0813684701      -13.3673168371      -22.5279557622  MEOH      2979            0.0000000000
     46539      3671  MEOH      LP1B            5.9669897100      -13.3380210897      -23.1749552662  MEOH      2979            0.0000000000
     46540      3672  MEOH      C1              8.4515245626        4.2876143236      -14.9906444413  MEOH      2980            0.0000000000
     46541      3672  MEOH      DC1             8.4538726426        4.2929024671      -15.0165191647  MEOH      2980            0.0000000000
     46542      3672  MEOH      O1              9.6074327523        3.6014782954      -15.4530119860  MEOH      2980            0.0000000000
     46543      3672  MEOH      DO1             9.6082207997        3.5995172456      -15.4752317979  MEOH      2980            0.0000000000
     46544      3672  MEOH      HO1            10.2024647996        3.5742031493      -14.6874449223  MEOH      2980            0.0000000000
     46545      3672  MEOH      HO2             9.2741256836        2.7686347926      -15.8220351538  MEOH      2980            0.0000000000
     46546      3672  MEOH      H1A             7.7027512824        4.3429067606      -15.8095475622  MEOH      2980            0.0000000000
     46547      3672  MEOH      H1B             8.7222229493        5.3144289709      -14.6640023363  MEOH      2980            0.0000000000
     46548      3672  MEOH      H1C             8.0077601279        3.7450024126      -14.1286894303  MEOH      2980            0.0000000000
     46549      3672  MEOH      LP1A            9.5696738472        3.2569631523      -15.4041900513  MEOH      2980            0.0000000000
     46550      3672  MEOH      LP1B            9.8350569797        3.8293012076      -15.5900664708  MEOH      2980            0.0000000000
     46551      3673  MEOH      C1            -23.8452286513      -19.1875147368       28.3420926233  MEOH      2981            0.0000000000
     46552      3673  MEOH      DC1           -23.8501374066      -19.1789049501       28.3418611441  MEOH      2981            0.0000000000
     46553      3673  MEOH      O1            -24.1867696820      -18.3611885426       29.4591166618  MEOH      2981            0.0000000000
     46554      3673  MEOH      DO1           -24.2005352683      -18.3607940787       29.4600844449  MEOH      2981            0.0000000000
     46555      3673  MEOH      HO1           -24.3409307095      -17.4568823758       29.1438949396  MEOH      2981            0.0000000000
     46556      3673  MEOH      HO2           -24.8438403772      -18.8490207076       29.9798640871  MEOH      2981            0.0000000000
     46557      3673  MEOH      H1A           -23.5117253617      -20.1851321977       28.6996621408  MEOH      2981            0.0000000000
     46558      3673  MEOH      H1B           -23.0105811281      -18.7296798980       27.7693171235  MEOH      2981            0.0000000000
     46559      3673  MEOH      H1C           -24.7295751022      -19.3262537748       27.6840623550  MEOH      2981            0.0000000000
     46560      3673  MEOH      LP1A          -24.5329132599      -18.3666351524       29.5106429454  MEOH      2981            0.0000000000
     46561      3673  MEOH      LP1B          -23.8967820260      -18.2265215501       29.6014962969  MEOH      2981            0.0000000000
     46562      3674  MEOH      C1            -21.4112688861        6.8807958642       31.6315926426  MEOH      2982            0.0000000000
     46563      3674  MEOH      DC1           -21.4106691930        6.8814006265       31.6230588140  MEOH      2982            0.0000000000
     46564      3674  MEOH      O1            -20.3064451998        5.9795920407       31.5852095478  MEOH      2982            0.0000000000
     46565      3674  MEOH      DO1           -20.3055825252        5.9873316143       31.5730339635  MEOH      2982            0.0000000000
     46566      3674  MEOH      HO1           -19.5351481047        6.4440723835       31.9461233910  MEOH      2982            0.0000000000
     46567      3674  MEOH      HO2           -20.6139089567        5.1754735308       32.0321541318  MEOH      2982            0.0000000000
     46568      3674  MEOH      H1A           -22.3199532794        6.3466926757       31.2803840736  MEOH      2982            0.0000000000
     46569      3674  MEOH      H1B           -21.2349806501        7.7540483861       30.9677602150  MEOH      2982            0.0000000000
     46570      3674  MEOH      H1C           -21.5814283036        7.2236037783       32.6745928855  MEOH      2982            0.0000000000
     46571      3674  MEOH      LP1A          -20.2928087286        5.7916448988       31.8801500816  MEOH      2982            0.0000000000
     46572      3674  MEOH      LP1B          -20.1414221797        6.0082332671       31.2778871064  MEOH      2982            0.0000000000
     46573      3675  MEOH      C1             -0.5728011113       23.9829506210       16.9490920376  MEOH      2983            0.0000000000
     46574      3675  MEOH      DC1            -0.5869535834       23.9707995885       16.9605199540  MEOH      2983            0.0000000000
     46575      3675  MEOH      O1             -1.6745937902       23.3135358998       16.3422549789  MEOH      2983            0.0000000000
     46576      3675  MEOH      DO1            -1.6786367383       23.3017873612       16.3410396143  MEOH      2983            0.0000000000
     46577      3675  MEOH      HO1            -1.8601671656       23.7746935061       15.5093106917  MEOH      2983            0.0000000000
     46578      3675  MEOH      HO2            -1.4590681672       22.3678399912       16.3526450824  MEOH      2983            0.0000000000
     46579      3675  MEOH      H1A            -0.4457230986       23.6127168762       17.9888512183  MEOH      2983            0.0000000000
     46580      3675  MEOH      H1B            -0.7685074108       25.0762602211       16.9754390057  MEOH      2983            0.0000000000
     46581      3675  MEOH      H1C             0.3635727049       23.7886610459       16.3836040716  MEOH      2983            0.0000000000
     46582      3675  MEOH      LP1A           -1.5591466275       23.0534526640       16.1384691524  MEOH      2983            0.0000000000
     46583      3675  MEOH      LP1B           -1.9755648822       23.4538028055       16.4528967295  MEOH      2983            0.0000000000
     46584      3676  MEOH      C1            -15.2254087736      -10.7781411684      -14.9822394761  MEOH      2984            0.0000000000
     46585      3676  MEOH      DC1           -15.2170041757      -10.7928491674      -14.9787874487  MEOH      2984            0.0000000000
     46586      3676  MEOH      O1            -14.3282694962      -11.7475499760      -15.5198884211  MEOH      2984            0.0000000000
     46587      3676  MEOH      DO1           -14.3247768131      -11.7676540550      -15.5231095388  MEOH      2984            0.0000000000
     46588      3676  MEOH      HO1           -14.4234892909      -11.6862522741      -16.4832553203  MEOH      2984            0.0000000000
     46589      3676  MEOH      HO2           -13.4706022605      -11.5675479327      -15.1040685349  MEOH      2984            0.0000000000
     46590      3676  MEOH      H1A           -15.1377005430      -10.7571315371      -13.8749062551  MEOH      2984            0.0000000000
     46591      3676  MEOH      H1B           -16.2711371215      -11.0274948176      -15.2625892222  MEOH      2984            0.0000000000
     46592      3676  MEOH      H1C           -14.9719006499       -9.7688597188      -15.3713481870  MEOH      2984            0.0000000000
     46593      3676  MEOH      LP1A          -14.0126738357      -11.6043874390      -15.5689176682  MEOH      2984            0.0000000000
     46594      3676  MEOH      LP1B          -14.4900568730      -12.0563997114      -15.5504937413  MEOH      2984            0.0000000000
     46595      3677  MEOH      C1              3.9893908384       28.8243957637      -28.6113155433  MEOH      2985            0.0000000000
     46596      3677  MEOH      DC1             4.0005299809       28.8248520985      -28.6160772962  MEOH      2985            0.0000000000
     46597      3677  MEOH      O1              3.0274762592       29.1586332635      -27.6133229823  MEOH      2985            0.0000000000
     46598      3677  MEOH      DO1             3.0484691918       29.1682736135      -27.6047969923  MEOH      2985            0.0000000000
     46599      3677  MEOH      HO1             2.5442436538       29.9403978800      -27.9235331265  MEOH      2985            0.0000000000
     46600      3677  MEOH      HO2             2.5105936419       28.3469816202      -27.4910365510  MEOH      2985            0.0000000000
     46601      3677  MEOH      H1A             4.4610858241       27.8526538221      -28.3514262561  MEOH      2985            0.0000000000
     46602      3677  MEOH      H1B             4.7714408656       29.6115895946      -28.6664936941  MEOH      2985            0.0000000000
     46603      3677  MEOH      H1C             3.4841729066       28.7275227036      -29.5960446694  MEOH      2985            0.0000000000
     46604      3677  MEOH      LP1A            2.7281045559       28.9876168677      -27.6735722612  MEOH      2985            0.0000000000
     46605      3677  MEOH      LP1B            3.1688820012       29.3769195631      -27.3791104559  MEOH      2985            0.0000000000
     46606      3678  MEOH      C1            -17.7725676360        3.1846504977       30.7119596468  MEOH      2986            0.0000000000
     46607      3678  MEOH      DC1           -17.7729941571        3.1937032157       30.7162850270  MEOH      2986            0.0000000000
     46608      3678  MEOH      O1            -18.5348702678        2.2146229729       31.4295319827  MEOH      2986            0.0000000000
     46609      3678  MEOH      DO1           -18.5310825475        2.2183353052       31.4397534703  MEOH      2986            0.0000000000
     46610      3678  MEOH      HO1           -18.1549822677        1.3425300053       31.2396926738  MEOH      2986            0.0000000000
     46611      3678  MEOH      HO2           -18.6330981628        2.5456646023       32.3359881156  MEOH      2986            0.0000000000
     46612      3678  MEOH      H1A           -18.2923930505        4.1655190978       30.7566734894  MEOH      2986            0.0000000000
     46613      3678  MEOH      H1B           -17.6698945760        2.8681957706       29.6519428309  MEOH      2986            0.0000000000
     46614      3678  MEOH      H1C           -16.7581203267        3.2786375265       31.1551120987  MEOH      2986            0.0000000000
     46615      3678  MEOH      LP1A          -18.4002336194        2.1693160717       31.7494073610  MEOH      2986            0.0000000000
     46616      3678  MEOH      LP1B          -18.8040531467        2.1055565959       31.2342242688  MEOH      2986            0.0000000000
     46617      3679  MEOH      C1             15.6156050864       24.6229964802      -33.7634152256  MEOH      2987            0.0000000000
     46618      3679  MEOH      DC1            15.6065459443       24.6312584959      -33.7637153518  MEOH      2987            0.0000000000
     46619      3679  MEOH      O1             15.2443437028       24.0749208734      -35.0248422893  MEOH      2987            0.0000000000
     46620      3679  MEOH      DO1            15.2219096908       24.0826556151      -35.0250042180  MEOH      2987            0.0000000000
     46621      3679  MEOH      HO1            16.0710864968       23.8872507757      -35.4961980867  MEOH      2987            0.0000000000
     46622      3679  MEOH      HO2            14.6419144804       23.3413415804      -34.8252415559  MEOH      2987            0.0000000000
     46623      3679  MEOH      H1A            14.7033012812       24.8508484997      -33.1717174766  MEOH      2987            0.0000000000
     46624      3679  MEOH      H1B            16.2048486961       25.5524597244      -33.9157669441  MEOH      2987            0.0000000000
     46625      3679  MEOH      H1C            16.2405135006       23.8905334288      -33.2090612295  MEOH      2987            0.0000000000
     46626      3679  MEOH      LP1A           15.2129661035       23.7272358018      -34.9997317877  MEOH      2987            0.0000000000
     46627      3679  MEOH      LP1B           15.2022455577       24.3315107794      -35.2591270867  MEOH      2987            0.0000000000
     46628      3680  MEOH      C1            -31.2633119903       27.7361019459       30.6545968070  MEOH      2988            0.0000000000
     46629      3680  MEOH      DC1           -31.2563686985       27.7249345826       30.6426838838  MEOH      2988            0.0000000000
     46630      3680  MEOH      O1            -32.2934474890       28.2944248581       31.4633227430  MEOH      2988            0.0000000000
     46631      3680  MEOH      DO1           -32.2825462384       28.2864475576       31.4584424446  MEOH      2988            0.0000000000
     46632      3680  MEOH      HO1           -32.7004283772       29.0324751062       30.9831681971  MEOH      2988            0.0000000000
     46633      3680  MEOH      HO2           -32.8342046466       27.5434639828       31.7540794468  MEOH      2988            0.0000000000
     46634      3680  MEOH      H1A           -30.7198608178       26.9481104648       31.2185571346  MEOH      2988            0.0000000000
     46635      3680  MEOH      H1B           -30.5465939595       28.5205729855       30.3301874153  MEOH      2988            0.0000000000
     46636      3680  MEOH      H1C           -31.7502498969       27.2653354234       29.7739201601  MEOH      2988            0.0000000000
     46637      3680  MEOH      LP1A          -32.5963830711       28.1304223498       31.4014098172  MEOH      2988            0.0000000000
     46638      3680  MEOH      LP1B          -32.1614699439       28.5446189076       31.6694413137  MEOH      2988            0.0000000000
     46639      3681  MEOH      C1            -24.6523665649      -13.6308459065        6.5950771510  MEOH      2989            0.0000000000
     46640      3681  MEOH      DC1           -24.6183772638      -13.6036351723        6.5888839716  MEOH      2989            0.0000000000
     46641      3681  MEOH      O1            -23.8095991228      -12.6932239089        5.9164565941  MEOH      2989            0.0000000000
     46642      3681  MEOH      DO1           -23.7941658032      -12.6813018294        5.9110813872  MEOH      2989            0.0000000000
     46643      3681  MEOH      HO1           -24.0955903756      -11.8085890678        6.1930975203  MEOH      2989            0.0000000000
     46644      3681  MEOH      HO2           -22.8970554999      -12.9920060469        6.0539097513  MEOH      2989            0.0000000000
     46645      3681  MEOH      H1A           -24.4717241721      -14.6600342007        6.2176373788  MEOH      2989            0.0000000000
     46646      3681  MEOH      H1B           -25.7231033972      -13.3914909854        6.4202833932  MEOH      2989            0.0000000000
     46647      3681  MEOH      H1C           -24.4678817462      -13.6072984605        7.6903998757  MEOH      2989            0.0000000000
     46648      3681  MEOH      LP1A          -23.5237447462      -12.6288257179        6.1078727594  MEOH      2989            0.0000000000
     46649      3681  MEOH      LP1B          -23.9489568564      -12.6095046103        5.6065041766  MEOH      2989            0.0000000000
     46650      3682  MEOH      C1            -14.8882025869      -30.9038197332       -4.9558207095  MEOH      2990            0.0000000000
     46651      3682  MEOH      DC1           -14.8977199602      -30.8919022902       -4.9617328479  MEOH      2990            0.0000000000
     46652      3682  MEOH      O1            -15.4367163888      -29.7538079382       -4.3265359599  MEOH      2990            0.0000000000
     46653      3682  MEOH      DO1           -15.4383470072      -29.7426455151       -4.3253620317  MEOH      2990            0.0000000000
     46654      3682  MEOH      HO1           -14.7990352902      -29.4883492051       -3.6455113807  MEOH      2990            0.0000000000
     46655      3682  MEOH      HO2           -15.6924691104      -29.1517958785       -5.0428264222  MEOH      2990            0.0000000000
     46656      3682  MEOH      H1A           -15.6358520312      -31.3288498498       -5.6591632358  MEOH      2990            0.0000000000
     46657      3682  MEOH      H1B           -14.6309096665      -31.6696812671       -4.1932084463  MEOH      2990            0.0000000000
     46658      3682  MEOH      H1C           -13.9695586100      -30.6272871469       -5.5161277453  MEOH      2990            0.0000000000
     46659      3682  MEOH      LP1A          -15.3344449869      -29.4647513840       -4.4953164944  MEOH      2990            0.0000000000
     46660      3682  MEOH      LP1B          -15.6405431066      -29.8496905780       -4.0586531712  MEOH      2990            0.0000000000
     46661      3683  MEOH      C1             13.2120723317       22.8628598464      -17.2148766414  MEOH      2991            0.0000000000
     46662      3683  MEOH      DC1            13.1988523938       22.8456792788      -17.2301275371  MEOH      2991            0.0000000000
     46663      3683  MEOH      O1             12.0825691750       23.7191445930      -17.4010762394  MEOH      2991            0.0000000000
     46664      3683  MEOH      DO1            12.0648760998       23.7084970211      -17.4205118212  MEOH      2991            0.0000000000
     46665      3683  MEOH      HO1            12.0246210717       23.9452135369      -18.3425829311  MEOH      2991            0.0000000000
     46666      3683  MEOH      HO2            11.3439289205       23.3469235367      -16.8943592971  MEOH      2991            0.0000000000
     46667      3683  MEOH      H1A            13.4022179973       22.7213237824      -16.1294582111  MEOH      2991            0.0000000000
     46668      3683  MEOH      H1B            14.1093139904       23.3354657786      -17.6686629774  MEOH      2991            0.0000000000
     46669      3683  MEOH      H1C            13.0442959233       21.8693103948      -17.6828847241  MEOH      2991            0.0000000000
     46670      3683  MEOH      LP1A           11.7960507670       23.5277177764      -17.4624193378  MEOH      2991            0.0000000000
     46671      3683  MEOH      LP1B           12.1776571599       24.0534264203      -17.3596765404  MEOH      2991            0.0000000000
     46672      3684  MEOH      C1            -13.3168750371       14.6355809180       10.3032605174  MEOH      2992            0.0000000000
     46673      3684  MEOH      DC1           -13.3230210681       14.6468148482       10.2946106815  MEOH      2992            0.0000000000
     46674      3684  MEOH      O1            -13.6639257796       14.5771928198       11.6863913764  MEOH      2992            0.0000000000
     46675      3684  MEOH      DO1           -13.6587773235       14.5918941234       11.6822815002  MEOH      2992            0.0000000000
     46676      3684  MEOH      HO1           -12.8488327596       14.4890373036       12.2048043138  MEOH      2992            0.0000000000
     46677      3684  MEOH      HO2           -14.3076362501       15.2851049504       11.8457565135  MEOH      2992            0.0000000000
     46678      3684  MEOH      H1A           -14.2265541683       14.4582801654        9.6905866063  MEOH      2992            0.0000000000
     46679      3684  MEOH      H1B           -12.5947454643       13.8367612128       10.0298799036  MEOH      2992            0.0000000000
     46680      3684  MEOH      H1C           -12.8726395076       15.6197603114       10.0417902198  MEOH      2992            0.0000000000
     46681      3684  MEOH      LP1A          -13.6756284262       14.9002217212       11.8206127492  MEOH      2992            0.0000000000
     46682      3684  MEOH      LP1B          -13.7215476094       14.2453122964       11.7814442193  MEOH      2992            0.0000000000
     46683      3685  MEOH      C1            -17.1734047911      -16.3552929049        3.1424351936  MEOH      2993            0.0000000000
     46684      3685  MEOH      DC1           -17.1728559192      -16.3598971385        3.1523086390  MEOH      2993            0.0000000000
     46685      3685  MEOH      O1            -17.9927521326      -15.1856846995        3.0624566821  MEOH      2993            0.0000000000
     46686      3685  MEOH      DO1           -18.0030244367      -15.1903975833        3.0594977189  MEOH      2993            0.0000000000
     46687      3685  MEOH      HO1           -18.0772136207      -14.8259019085        3.9592970249  MEOH      2993            0.0000000000
     46688      3685  MEOH      HO2           -17.5918399784      -14.6369852397        2.3702873762  MEOH      2993            0.0000000000
     46689      3685  MEOH      H1A           -17.0445111915      -16.7790299322        2.1235365856  MEOH      2993            0.0000000000
     46690      3685  MEOH      H1B           -17.6529601264      -17.1214819298        3.7884244033  MEOH      2993            0.0000000000
     46691      3685  MEOH      H1C           -16.1693230327      -16.0891388986        3.5365200414  MEOH      2993            0.0000000000
     46692      3685  MEOH      LP1A          -17.7939283433      -14.9041928266        3.0013712805  MEOH      2993            0.0000000000
     46693      3685  MEOH      LP1B          -18.3297569851      -15.2728940795        3.0988194852  MEOH      2993            0.0000000000
     46694      3686  MEOH      C1             30.0221139037       -6.9842793799      -17.8409549181  MEOH      2994            0.0000000000
     46695      3686  MEOH      DC1            30.0098971518       -6.9843791281      -17.8159228562  MEOH      2994            0.0000000000
     46696      3686  MEOH      O1             29.1867532138       -6.6032518112      -18.9307729946  MEOH      2994            0.0000000000
     46697      3686  MEOH      DO1            29.1719711474       -6.5929805955      -18.9043051794  MEOH      2994            0.0000000000
     46698      3686  MEOH      HO1            29.5240675276       -7.0487426914      -19.7236518828  MEOH      2994            0.0000000000
     46699      3686  MEOH      HO2            28.2713331626       -6.6716695916      -18.6173640968  MEOH      2994            0.0000000000
     46700      3686  MEOH      H1A            29.9483153612       -6.1969020508      -17.0606269635  MEOH      2994            0.0000000000
     46701      3686  MEOH      H1B            31.0870972503       -7.0320022929      -18.1537711535  MEOH      2994            0.0000000000
     46702      3686  MEOH      H1C            29.7300382481       -7.9801090740      -17.4442988549  MEOH      2994            0.0000000000
     46703      3686  MEOH      LP1A           28.9171162418       -6.8247279615      -18.9580533568  MEOH      2994            0.0000000000
     46704      3686  MEOH      LP1B           29.3097570849       -6.3112765532      -19.0795026030  MEOH      2994            0.0000000000
     46705      3687  MEOH      C1            -24.9340680924      -22.2990152328      -28.2567989334  MEOH      2995            0.0000000000
     46706      3687  MEOH      DC1           -24.9288364382      -22.2966703110      -28.2617309738  MEOH      2995            0.0000000000
     46707      3687  MEOH      O1            -25.5129384591      -23.2257449171      -27.3388347868  MEOH      2995            0.0000000000
     46708      3687  MEOH      DO1           -25.5118961278      -23.2273827936      -27.3466968306  MEOH      2995            0.0000000000
     46709      3687  MEOH      HO1           -26.4743347171      -23.2268271721      -27.4677381013  MEOH      2995            0.0000000000
     46710      3687  MEOH      HO2           -24.9913622710      -24.0405087471      -27.4096739096  MEOH      2995            0.0000000000
     46711      3687  MEOH      H1A           -23.8545591541      -22.1778710685      -28.0237634346  MEOH      2995            0.0000000000
     46712      3687  MEOH      H1B           -25.4359868245      -21.3122344604      -28.1637274817  MEOH      2995            0.0000000000
     46713      3687  MEOH      H1C           -25.0436939385      -22.6780407036      -29.2953762617  MEOH      2995            0.0000000000
     46714      3687  MEOH      LP1A          -25.5261022692      -23.5444845724      -27.4828200160  MEOH      2995            0.0000000000
     46715      3687  MEOH      LP1B          -25.5864483014      -23.0649579577      -27.0367688059  MEOH      2995            0.0000000000
     46716      3688  MEOH      C1            -31.9621425361       34.5166834854      -17.4312465504  MEOH      2996            0.0000000000
     46717      3688  MEOH      DC1           -31.9682391787       34.5101014659      -17.4217222266  MEOH      2996            0.0000000000
     46718      3688  MEOH      O1            -31.5025397264       34.7945609926      -18.7521675115  MEOH      2996            0.0000000000
     46719      3688  MEOH      DO1           -31.5150714930       34.7897365778      -18.7513591878  MEOH      2996            0.0000000000
     46720      3688  MEOH      HO1           -30.8391097730       35.5007304807      -18.7065018686  MEOH      2996            0.0000000000
     46721      3688  MEOH      HO2           -31.2913412180       33.9379359093      -19.1552663298  MEOH      2996            0.0000000000
     46722      3688  MEOH      H1A           -32.7741493811       33.7592635592      -17.4670367618  MEOH      2996            0.0000000000
     46723      3688  MEOH      H1B           -32.3407468314       35.4489483209      -16.9602241884  MEOH      2996            0.0000000000
     46724      3688  MEOH      H1C           -31.1193220351       34.1182606620      -16.8269007408  MEOH      2996            0.0000000000
     46725      3688  MEOH      LP1A          -31.2303220159       34.5887816033      -18.8299644334  MEOH      2996            0.0000000000
     46726      3688  MEOH      LP1B          -31.7046295920       35.0389309547      -18.9002992360  MEOH      2996            0.0000000000
     46727      3689  MEOH      C1             -3.2380447457        8.3876570065      -25.2114209216  MEOH      2997            0.0000000000
     46728      3689  MEOH      DC1            -3.2281798741        8.4047187968      -25.1966735232  MEOH      2997            0.0000000000
     46729      3689  MEOH      O1             -3.1846411774        9.8125866420      -25.1377885788  MEOH      2997            0.0000000000
     46730      3689  MEOH      DO1            -3.1777426142        9.8294495566      -25.1116427449  MEOH      2997            0.0000000000
     46731      3689  MEOH      HO1            -2.2470895829       10.0526372951      -25.0724227423  MEOH      2997            0.0000000000
     46732      3689  MEOH      HO2            -3.6470923461       10.1105690423      -25.9366912047  MEOH      2997            0.0000000000
     46733      3689  MEOH      H1A            -4.2351829241        8.0710792762      -25.5853393535  MEOH      2997            0.0000000000
     46734      3689  MEOH      H1B            -3.0662552396        7.9357497581      -24.2111263620  MEOH      2997            0.0000000000
     46735      3689  MEOH      H1C            -2.4679651343        8.0184001978      -25.9220177144  MEOH      2997            0.0000000000
     46736      3689  MEOH      LP1A           -3.1671878874        9.9485249506      -25.4598385111  MEOH      2997            0.0000000000
     46737      3689  MEOH      LP1B           -3.2045932230        9.9160379534      -24.8040225799  MEOH      2997            0.0000000000
     46738      3690  MEOH      C1             23.5496234926       31.7612620832      -27.2384133676  MEOH      2998            0.0000000000
     46739      3690  MEOH      DC1            23.5439061797       31.7698446247      -27.2353004071  MEOH      2998            0.0000000000
     46740      3690  MEOH      O1             22.6811860987       32.1696252054      -26.1783879829  MEOH      2998            0.0000000000
     46741      3690  MEOH      DO1            22.6801773206       32.1775721281      -26.1805161717  MEOH      2998            0.0000000000
     46742      3690  MEOH      HO1            23.1893748555       32.7317668929      -25.5728791782  MEOH      2998            0.0000000000
     46743      3690  MEOH      HO2            21.8669206627       32.4901316807      -26.5968941346  MEOH      2998            0.0000000000
     46744      3690  MEOH      H1A            23.0499205239       30.9794165989      -27.8494253005  MEOH      2998            0.0000000000
     46745      3690  MEOH      H1B            24.4890552267       31.3359834671      -26.8249800408  MEOH      2998            0.0000000000
     46746      3690  MEOH      H1C            23.7893974031       32.6244253293      -27.8955120538  MEOH      2998            0.0000000000
     46747      3690  MEOH      LP1A           22.5172440435       32.4663243558      -26.2655236052  MEOH      2998            0.0000000000
     46748      3690  MEOH      LP1B           22.6911212115       31.9353717276      -25.9185291719  MEOH      2998            0.0000000000
     46749      3691  MEOH      C1            -28.8721128706      -21.6893003155       26.4603358807  MEOH      2999            0.0000000000
     46750      3691  MEOH      DC1           -28.8848179553      -21.6747942058       26.4474123747  MEOH      2999            0.0000000000
     46751      3691  MEOH      O1            -29.1617961684      -20.5285357591       25.6775895868  MEOH      2999            0.0000000000
     46752      3691  MEOH      DO1           -29.1727622516      -20.5207610115       25.6683363025  MEOH      2999            0.0000000000
     46753      3691  MEOH      HO1           -29.4798479666      -19.8545935388       26.2985122377  MEOH      2999            0.0000000000
     46754      3691  MEOH      HO2           -28.3668390385      -20.3618912637       25.1473323155  MEOH      2999            0.0000000000
     46755      3691  MEOH      H1A           -28.5730948635      -22.5325468997       25.8016672009  MEOH      2999            0.0000000000
     46756      3691  MEOH      H1B           -29.7636869948      -22.0088312823       27.0411254677  MEOH      2999            0.0000000000
     46757      3691  MEOH      H1C           -28.0306563769      -21.4732404700       27.1528603302  MEOH      2999            0.0000000000
     46758      3691  MEOH      LP1A          -28.8760941837      -20.3282153975       25.6502742309  MEOH      2999            0.0000000000
     46759      3691  MEOH      LP1B          -29.4927660880      -20.5400638221       25.5643375842  MEOH      2999            0.0000000000
     46760      3692  MEOH      C1             20.4751291241      -26.1257051800       -5.5718617711  MEOH      3000            0.0000000000
     46761      3692  MEOH      DC1            20.4643283096      -26.1158744506       -5.5887722999  MEOH      3000            0.0000000000
     46762      3692  MEOH      O1             20.9648833468      -24.9563476002       -6.2339015785  MEOH      3000            0.0000000000
     46763      3692  MEOH      DO1            20.9302407010      -24.9401316237       -6.2530184223  MEOH      3000            0.0000000000
     46764      3692  MEOH      HO1            21.2520044004      -24.3689125753       -5.5173950588  MEOH      3000            0.0000000000
     46765      3692  MEOH      HO2            21.6619050093      -25.2869063929       -6.8219421269  MEOH      3000            0.0000000000
     46766      3692  MEOH      H1A            20.3346663336      -26.9531709670       -6.2997982905  MEOH      3000            0.0000000000
     46767      3692  MEOH      H1B            19.5153586298      -25.8960957930       -5.0615274417  MEOH      3000            0.0000000000
     46768      3692  MEOH      H1C            21.1976454574      -26.4564003337       -4.7953748974  MEOH      3000            0.0000000000
     46769      3692  MEOH      LP1A           21.3053257437      -24.9934378989       -6.3061738701  MEOH      3000            0.0000000000
     46770      3692  MEOH      LP1B           20.7039447368      -24.7282300932       -6.2826195913  MEOH      3000            0.0000000000
     46771      3693  MEOH      C1             28.8260370605       -5.9187281647      -34.5912347759  MEOH      3001            0.0000000000
     46772      3693  MEOH      DC1            28.8398292619       -5.9195638815      -34.5796856558  MEOH      3001            0.0000000000
     46773      3693  MEOH      O1             28.8150673069       -4.9625970980      -33.5274365922  MEOH      3001            0.0000000000
     46774      3693  MEOH      DO1            28.8291626248       -4.9593618906      -33.5174307262  MEOH      3001            0.0000000000
     46775      3693  MEOH      HO1            29.6992827202       -4.5647793275      -33.4990794801  MEOH      3001            0.0000000000
     46776      3693  MEOH      HO2            28.0445566840       -4.3978079606      -33.6954443611  MEOH      3001            0.0000000000
     46777      3693  MEOH      H1A            27.8250141141       -6.3918898223      -34.6828432260  MEOH      3001            0.0000000000
     46778      3693  MEOH      H1B            29.5694382268       -6.7194119943      -34.3897872344  MEOH      3001            0.0000000000
     46779      3693  MEOH      H1C            29.0620957838       -5.4234400114      -35.5573025398  MEOH      3001            0.0000000000
     46780      3693  MEOH      LP1A           28.7106136159       -4.6509363879      -33.6476739750  MEOH      3001            0.0000000000
     46781      3693  MEOH      LP1B           28.9067275783       -5.1168242191      -33.2269163936  MEOH      3001            0.0000000000
     46782      3694  MEOH      C1            -28.5332174312        4.1813274181      -17.0547616753  MEOH      3002            0.0000000000
     46783      3694  MEOH      DC1           -28.5466951313        4.1819324046      -17.0488560392  MEOH      3002            0.0000000000
     46784      3694  MEOH      O1            -29.6803261991        3.5960534178      -16.4329813899  MEOH      3002            0.0000000000
     46785      3694  MEOH      DO1           -29.6996845911        3.5954399379      -16.4260111242  MEOH      3002            0.0000000000
     46786      3694  MEOH      HO1           -30.3362303221        3.5327907102      -17.1448013188  MEOH      3002            0.0000000000
     46787      3694  MEOH      HO2           -29.3566983845        2.7828403240      -16.0148312936  MEOH      3002            0.0000000000
     46788      3694  MEOH      H1A           -27.6823764350        4.1945749311      -16.3404682461  MEOH      3002            0.0000000000
     46789      3694  MEOH      H1B           -28.7620470718        5.2219980231      -17.3693450325  MEOH      3002            0.0000000000
     46790      3694  MEOH      H1C           -28.2266512144        3.5970817412      -17.9486269580  MEOH      3002            0.0000000000
     46791      3694  MEOH      LP1A          -29.6618953370        3.2470656611      -16.4521607789  MEOH      3002            0.0000000000
     46792      3694  MEOH      LP1B          -29.8851641199        3.8466159268      -16.2997152829  MEOH      3002            0.0000000000
     46793      3695  MEOH      C1             30.4161222621       17.2062835234        7.4703159395  MEOH      3003            0.0000000000
     46794      3695  MEOH      DC1            30.4116323864       17.2177272236        7.4762136051  MEOH      3003            0.0000000000
     46795      3695  MEOH      O1             31.1289656968       18.4088726923        7.7537007845  MEOH      3003            0.0000000000
     46796      3695  MEOH      DO1            31.1157941412       18.4273684297        7.7574719942  MEOH      3003            0.0000000000
     46797      3695  MEOH      HO1            31.8128894838       18.4760017940        7.0691265100  MEOH      3003            0.0000000000
     46798      3695  MEOH      HO2            30.4615803098       19.0971146444        7.9014159224  MEOH      3003            0.0000000000
     46799      3695  MEOH      H1A            29.7428196739       16.9384962804        8.3125003721  MEOH      3003            0.0000000000
     46800      3695  MEOH      H1B            31.1292674143       16.3710363567        7.3026640300  MEOH      3003            0.0000000000
     46801      3695  MEOH      H1C            29.8053318036       17.3280839033        6.5503046986  MEOH      3003            0.0000000000
     46802      3695  MEOH      LP1A           30.9774559874       18.6790603266        7.5907791769  MEOH      3003            0.0000000000
     46803      3695  MEOH      LP1B           31.3933252156       18.3424249381        7.9732429007  MEOH      3003            0.0000000000
     46804      3696  MEOH      C1             -9.3610179099      -36.4234335391      -31.0009380292  MEOH      3004            0.0000000000
     46805      3696  MEOH      DC1            -9.3599654627      -36.4203296926      -31.0165956281  MEOH      3004            0.0000000000
     46806      3696  MEOH      O1            -10.6912694498      -36.3596251942      -31.5018762685  MEOH      3004            0.0000000000
     46807      3696  MEOH      DO1           -10.6919008789      -36.3531969726      -31.5076927935  MEOH      3004            0.0000000000
     46808      3696  MEOH      HO1           -11.2789961906      -36.5280286791      -30.7488041973  MEOH      3004            0.0000000000
     46809      3696  MEOH      HO2           -10.7453783002      -35.5479771368      -32.0302697440  MEOH      3004            0.0000000000
     46810      3696  MEOH      H1A            -8.6449263235      -36.5135011456      -31.8455809515  MEOH      3004            0.0000000000
     46811      3696  MEOH      H1B            -9.2797284591      -37.3025171442      -30.3264567154  MEOH      3004            0.0000000000
     46812      3696  MEOH      H1C            -9.1230765143      -35.5151784719      -30.4069871677  MEOH      3004            0.0000000000
     46813      3696  MEOH      LP1A          -10.8101786568      -36.0309152411      -31.4842590257  MEOH      3004            0.0000000000
     46814      3696  MEOH      LP1B          -10.7921270068      -36.6753659369      -31.6142841712  MEOH      3004            0.0000000000
     46815      3697  MEOH      C1             -1.0524353409       -2.2744503728       33.4317126885  MEOH      3005            0.0000000000
     46816      3697  MEOH      DC1            -1.0504337111       -2.2913232498       33.4102664424  MEOH      3005            0.0000000000
     46817      3697  MEOH      O1             -2.0380917652       -2.6231436201       32.4637251862  MEOH      3005            0.0000000000
     46818      3697  MEOH      DO1            -2.0315209517       -2.6307734218       32.4376207838  MEOH      3005            0.0000000000
     46819      3697  MEOH      HO1            -2.4386681529       -1.7932071594       32.1609975381  MEOH      3005            0.0000000000
     46820      3697  MEOH      HO2            -1.6544398614       -3.2949007550       31.8785298608  MEOH      3005            0.0000000000
     46821      3697  MEOH      H1A            -0.8417056919       -3.1445305851       34.0896446312  MEOH      3005            0.0000000000
     46822      3697  MEOH      H1B            -1.4296782286       -1.4317010682       34.0495981260  MEOH      3005            0.0000000000
     46823      3697  MEOH      H1C            -0.1145342530       -1.9488610164       32.9330603845  MEOH      3005            0.0000000000
     46824      3697  MEOH      LP1A           -1.8937667816       -2.6357846652       32.1451180565  MEOH      3005            0.0000000000
     46825      3697  MEOH      LP1B           -2.3454781362       -2.6801978016       32.6210733331  MEOH      3005            0.0000000000
     46826      3698  MEOH      C1            -36.6567168612      -33.8628986662       22.6001181033  MEOH      3006            0.0000000000
     46827      3698  MEOH      DC1           -36.6530315028      -33.8814402243       22.5999155088  MEOH      3006            0.0000000000
     46828      3698  MEOH      O1            -36.3419372842      -32.6014732763       22.0219303758  MEOH      3006            0.0000000000
     46829      3698  MEOH      DO1           -36.3441996027      -32.6197101121       22.0176088203  MEOH      3006            0.0000000000
     46830      3698  MEOH      HO1           -35.4820034101      -32.6358259299       21.5744556532  MEOH      3006            0.0000000000
     46831      3698  MEOH      HO2           -37.1493539000      -32.2961556068       21.5794831697  MEOH      3006            0.0000000000
     46832      3698  MEOH      H1A           -37.5904674164      -33.7335732084       23.1880856435  MEOH      3006            0.0000000000
     46833      3698  MEOH      H1B           -35.8425992410      -34.1950066957       23.2792629757  MEOH      3006            0.0000000000
     46834      3698  MEOH      H1C           -36.8292121796      -34.6223580068       21.8077874431  MEOH      3006            0.0000000000
     46835      3698  MEOH      LP1A          -36.4691629517      -32.5839320152       21.6963448514  MEOH      3006            0.0000000000
     46836      3698  MEOH      LP1B          -36.1716649783      -32.4025024596       22.2541327789  MEOH      3006            0.0000000000
     46837      3699  MEOH      C1              6.0846819383       -6.9691076272      -13.7113241544  MEOH      3007            0.0000000000
     46838      3699  MEOH      DC1             6.0839441357       -6.9755895586      -13.7056912105  MEOH      3007            0.0000000000
     46839      3699  MEOH      O1              7.0021100553       -7.8414133316      -13.0521680515  MEOH      3007            0.0000000000
     46840      3699  MEOH      DO1             6.9942467097       -7.8477798302      -13.0440738282  MEOH      3007            0.0000000000
     46841      3699  MEOH      HO1             7.0471139639       -7.6024375315      -12.1131445080  MEOH      3007            0.0000000000
     46842      3699  MEOH      HO2             6.8154992606       -8.7418411662      -13.3608849569  MEOH      3007            0.0000000000
     46843      3699  MEOH      H1A             6.1934525355       -7.0764384240      -14.8117650011  MEOH      3007            0.0000000000
     46844      3699  MEOH      H1B             6.2833738795       -5.9138590452      -13.4262049794  MEOH      3007            0.0000000000
     46845      3699  MEOH      H1C             5.0438903463       -7.2388464956      -13.4314763288  MEOH      3007            0.0000000000
     46846      3699  MEOH      LP1A            6.8346357966       -8.1263051420      -12.9368900004  MEOH      3007            0.0000000000
     46847      3699  MEOH      LP1B            7.3254610423       -7.7082595015      -13.0668035120  MEOH      3007            0.0000000000
     46848      3700  MEOH      C1             21.1287356969      -31.2324246427      -34.0411278326  MEOH      3008            0.0000000000
     46849      3700  MEOH      DC1            21.1295793316      -31.2300166438      -34.0393817017  MEOH      3008            0.0000000000
     46850      3700  MEOH      O1             21.1280023864      -32.6192608683      -34.3524997669  MEOH      3008            0.0000000000
     46851      3700  MEOH      DO1            21.1229100759      -32.6180050215      -34.3446318064  MEOH      3008            0.0000000000
     46852      3700  MEOH      HO1            21.6364489813      -33.0939794498      -33.6764640219  MEOH      3008            0.0000000000
     46853      3700  MEOH      HO2            20.2166600521      -32.8530041444      -34.5885489815  MEOH      3008            0.0000000000
     46854      3700  MEOH      H1A            20.7769120340      -30.6575990842      -34.9243699791  MEOH      3008            0.0000000000
     46855      3700  MEOH      H1B            22.1541960004      -30.8959016292      -33.7774909082  MEOH      3008            0.0000000000
     46856      3700  MEOH      H1C            20.4393377370      -31.0459912077      -33.1900731767  MEOH      3008            0.0000000000
     46857      3700  MEOH      LP1A           20.8510686348      -32.7748086812      -34.2054876071  MEOH      3008            0.0000000000
     46858      3700  MEOH      LP1B           21.3984487212      -32.6952154819      -34.5612811758  MEOH      3008            0.0000000000
     46859      3701  MEOH      C1              0.2815995046       31.9788593477      -29.1425987508  MEOH      3009            0.0000000000
     46860      3701  MEOH      DC1             0.2996354744       31.9853960966      -29.1430844071  MEOH      3009            0.0000000000
     46861      3701  MEOH      O1             -0.9738369657       31.3709191663      -29.4278003965  MEOH      3009            0.0000000000
     46862      3701  MEOH      DO1            -0.9614774889       31.3821988262      -29.4329534706  MEOH      3009            0.0000000000
     46863      3701  MEOH      HO1            -1.6100205072       31.6177751525      -28.7384292159  MEOH      3009            0.0000000000
     46864      3701  MEOH      HO2            -1.1531631538       31.5378259908      -30.3663547264  MEOH      3009            0.0000000000
     46865      3701  MEOH      H1A             1.0593908682       31.5554161990      -29.8134619972  MEOH      3009            0.0000000000
     46866      3701  MEOH      H1B             0.5670476282       31.7923321568      -28.0852208732  MEOH      3009            0.0000000000
     46867      3701  MEOH      H1C             0.1954950322       33.0705275667      -29.3301288049  MEOH      3009            0.0000000000
     46868      3701  MEOH      LP1A           -1.1650297378       31.5812207283      -29.6320516558  MEOH      3009            0.0000000000
     46869      3701  MEOH      LP1B           -0.9892939357       31.0535979409      -29.2809388223  MEOH      3009            0.0000000000
     46870      3702  MEOH      C1            -34.0111188158      -23.8612060025      -12.3834403473  MEOH      3010            0.0000000000
     46871      3702  MEOH      DC1           -34.0096731276      -23.8548594673      -12.3812858897  MEOH      3010            0.0000000000
     46872      3702  MEOH      O1            -33.5205513484      -22.9681821814      -11.3855245724  MEOH      3010            0.0000000000
     46873      3702  MEOH      DO1           -33.5218146988      -22.9612288227      -11.3794994711  MEOH      3010            0.0000000000
     46874      3702  MEOH      HO1           -33.1844165161      -23.5296802513      -10.6695404297  MEOH      3010            0.0000000000
     46875      3702  MEOH      HO2           -32.9224185532      -22.3598400184      -11.8471055209  MEOH      3010            0.0000000000
     46876      3702  MEOH      H1A           -34.4550456252      -23.2950547457      -13.2300351396  MEOH      3010            0.0000000000
     46877      3702  MEOH      H1B           -34.7876788303      -24.5164313227      -11.9340459502  MEOH      3010            0.0000000000
     46878      3702  MEOH      H1C           -33.1837627482      -24.4935851448      -12.7706089908  MEOH      3010            0.0000000000
     46879      3702  MEOH      LP1A          -33.1844215123      -22.8926562284      -11.4472705331  MEOH      3010            0.0000000000
     46880      3702  MEOH      LP1B          -33.7773430428      -22.8848454844      -11.1627847676  MEOH      3010            0.0000000000
     46881      3703  MEOH      C1              7.3066720231      -28.6083865605      -11.8870268892  MEOH      3011            0.0000000000
     46882      3703  MEOH      DC1             7.3166321576      -28.6119955691      -11.8968806087  MEOH      3011            0.0000000000
     46883      3703  MEOH      O1              7.1392270718      -28.0012251730      -13.1676115844  MEOH      3011            0.0000000000
     46884      3703  MEOH      DO1             7.1464948167      -28.0091445409      -13.1704426903  MEOH      3011            0.0000000000
     46885      3703  MEOH      HO1             6.3272338471      -28.3647787242      -13.5541291369  MEOH      3011            0.0000000000
     46886      3703  MEOH      HO2             7.1841946081      -27.0456751611      -13.0069812764  MEOH      3011            0.0000000000
     46887      3703  MEOH      H1A             8.2083710471      -28.1926933884      -11.3885702141  MEOH      3011            0.0000000000
     46888      3703  MEOH      H1B             7.4280347272      -29.7068746738      -12.0006753011  MEOH      3011            0.0000000000
     46889      3703  MEOH      H1C             6.4225968326      -28.3980957542      -11.2478791482  MEOH      3011            0.0000000000
     46890      3703  MEOH      LP1A            6.9558351122      -27.7047502443      -13.1364666691  MEOH      3011            0.0000000000
     46891      3703  MEOH      LP1B            7.3041716981      -28.1898198717      -13.4119992067  MEOH      3011            0.0000000000
     46892      3704  MEOH      C1             27.1769160072       34.6433592235       28.4809383220  MEOH      3012            0.0000000000
     46893      3704  MEOH      DC1            27.1801904032       34.6405072980       28.4774205493  MEOH      3012            0.0000000000
     46894      3704  MEOH      O1             27.9922801449       33.7418284720       29.2384119440  MEOH      3012            0.0000000000
     46895      3704  MEOH      DO1            27.9983406076       33.7460414946       29.2322191981  MEOH      3012            0.0000000000
     46896      3704  MEOH      HO1            28.3253408319       33.0477306443       28.6483282337  MEOH      3012            0.0000000000
     46897      3704  MEOH      HO2            28.6112388376       34.2951913154       29.7399891567  MEOH      3012            0.0000000000
     46898      3704  MEOH      H1A            26.6501241253       35.3345236419       29.1731110316  MEOH      3012            0.0000000000
     46899      3704  MEOH      H1B            26.4228444661       34.0812739368       27.8895355459  MEOH      3012            0.0000000000
     46900      3704  MEOH      H1C            27.8042653130       35.2529338590       27.7959765619  MEOH      3012            0.0000000000
     46901      3704  MEOH      LP1A           28.3241208632       33.8530907155       29.2399774693  MEOH      3012            0.0000000000
     46902      3704  MEOH      LP1B           27.7948077948       33.4860744037       29.3729278443  MEOH      3012            0.0000000000
     46903      3705  MEOH      C1             31.9218594498       18.6938202462      -19.5993017828  MEOH      3013            0.0000000000
     46904      3705  MEOH      DC1            31.9114726602       18.6749670831      -19.5942365407  MEOH      3013            0.0000000000
     46905      3705  MEOH      O1             32.7737257143       18.9797299300      -20.7102540808  MEOH      3013            0.0000000000
     46906      3705  MEOH      DO1            32.7715575875       18.9621925929      -20.7032655461  MEOH      3013            0.0000000000
     46907      3705  MEOH      HO1            32.8093012084       19.9438525832      -20.8107622587  MEOH      3013            0.0000000000
     46908      3705  MEOH      HO2            33.5870149474       18.4720851476      -20.5627501830  MEOH      3013            0.0000000000
     46909      3705  MEOH      H1A            31.7777032981       17.5951174365      -19.5193509200  MEOH      3013            0.0000000000
     46910      3705  MEOH      H1B            30.9335512621       19.1805916672      -19.7429036976  MEOH      3013            0.0000000000
     46911      3705  MEOH      H1C            32.3820554767       19.0638259470      -18.6582192149  MEOH      3013            0.0000000000
     46912      3705  MEOH      LP1A           33.1053191780       19.0095326566      -20.6022838426  MEOH      3013            0.0000000000
     46913      3705  MEOH      LP1B           32.5865889609       18.9865925264      -21.0059443584  MEOH      3013            0.0000000000
     46914      3706  MEOH      C1              0.4212341324       36.7862501625       27.4043238677  MEOH      3014            0.0000000000
     46915      3706  MEOH      DC1             0.4233916444       36.7857939921       27.4115461056  MEOH      3014            0.0000000000
     46916      3706  MEOH      O1              0.8101944284       36.8059798154       28.7757966081  MEOH      3014            0.0000000000
     46917      3706  MEOH      DO1             0.8112785606       36.8007864108       28.7813518633  MEOH      3014            0.0000000000
     46918      3706  MEOH      HO1             0.0160077372       36.6240501627       29.3021701469  MEOH      3014            0.0000000000
     46919      3706  MEOH      HO2             1.5952564013       36.2390879622       28.8324651665  MEOH      3014            0.0000000000
     46920      3706  MEOH      H1A             1.3122443172       37.0567496702       26.7983107750  MEOH      3014            0.0000000000
     46921      3706  MEOH      H1B            -0.3927713545       37.5180124923       27.2139559070  MEOH      3014            0.0000000000
     46922      3706  MEOH      H1C             0.0829390916       35.7707165636       27.1067184664  MEOH      3014            0.0000000000
     46923      3706  MEOH      LP1A            0.9129588672       36.4866654194       28.8756854795  MEOH      3014            0.0000000000
     46924      3706  MEOH      LP1B            0.7835581465       37.1309107826       28.9031165790  MEOH      3014            0.0000000000
     46925      3707  MEOH      C1             31.7680738469      -33.9918085959      -15.3487524657  MEOH      3015            0.0000000000
     46926      3707  MEOH      DC1            31.7519101395      -34.0075940456      -15.3480124309  MEOH      3015            0.0000000000
     46927      3707  MEOH      O1             31.1434289732      -35.0231420750      -16.1110745968  MEOH      3015            0.0000000000
     46928      3707  MEOH      DO1            31.1275568553      -35.0390113850      -16.1052241460  MEOH      3015            0.0000000000
     46929      3707  MEOH      HO1            31.7767319705      -35.2405415690      -16.8129041869  MEOH      3015            0.0000000000
     46930      3707  MEOH      HO2            30.8383274314      -35.6891852223      -15.4753076775  MEOH      3015            0.0000000000
     46931      3707  MEOH      H1A            31.0608088813      -33.5821049115      -14.5962631556  MEOH      3015            0.0000000000
     46932      3707  MEOH      H1B            32.0899026157      -33.1687916828      -16.0220951756  MEOH      3015            0.0000000000
     46933      3707  MEOH      H1C            32.6627388007      -34.3945332608      -14.8274958449  MEOH      3015            0.0000000000
     46934      3707  MEOH      LP1A           31.2239051904      -35.3363759817      -15.9772534543  MEOH      3015            0.0000000000
     46935      3707  MEOH      LP1B           30.9489808612      -34.8825914780      -16.3658989704  MEOH      3015            0.0000000000
     46936      3708  MEOH      C1             29.7398281913       18.0168558368       10.9542051327  MEOH      3016            0.0000000000
     46937      3708  MEOH      DC1            29.7338009641       18.0272392177       10.9648007420  MEOH      3016            0.0000000000
     46938      3708  MEOH      O1             29.8594877934       16.6667334367       11.4035405331  MEOH      3016            0.0000000000
     46939      3708  MEOH      DO1            29.8579312101       16.6721175851       11.4110867760  MEOH      3016            0.0000000000
     46940      3708  MEOH      HO1            29.6174143937       16.0984406429       10.6556476465  MEOH      3016            0.0000000000
     46941      3708  MEOH      HO2            30.7493571758       16.5991430904       11.7836247713  MEOH      3016            0.0000000000
     46942      3708  MEOH      H1A            29.9613456131       18.7096920968       11.7939842398  MEOH      3016            0.0000000000
     46943      3708  MEOH      H1B            28.7187439688       18.2083561174       10.5604594617  MEOH      3016            0.0000000000
     46944      3708  MEOH      H1C            30.4802920695       18.2014001858       10.1467538155  MEOH      3016            0.0000000000
     46945      3708  MEOH      LP1A           30.1850384248       16.5506350046       11.3484230180  MEOH      3016            0.0000000000
     46946      3708  MEOH      LP1B           29.5572854877       16.5602016831       11.5443409305  MEOH      3016            0.0000000000
     46947      3709  MEOH      C1             26.7814595180      -11.9857304350      -26.9989926701  MEOH      3017            0.0000000000
     46948      3709  MEOH      DC1            26.7800367881      -11.9994491229      -27.0040133654  MEOH      3017            0.0000000000
     46949      3709  MEOH      O1             27.3260536466      -10.6925046902      -27.2531865626  MEOH      3017            0.0000000000
     46950      3709  MEOH      DO1            27.3273049905      -10.7041720078      -27.2565247390  MEOH      3017            0.0000000000
     46951      3709  MEOH      HO1            27.6681625431      -10.3413883314      -26.4161807045  MEOH      3017            0.0000000000
     46952      3709  MEOH      HO2            27.9089014920      -10.7927935232      -28.0220367034  MEOH      3017            0.0000000000
     46953      3709  MEOH      H1A            26.3301815096      -12.3823436804      -27.9335337838  MEOH      3017            0.0000000000
     46954      3709  MEOH      H1B            25.9788947477      -11.9199280307      -26.2335641411  MEOH      3017            0.0000000000
     46955      3709  MEOH      H1C            27.5799929822      -12.6728496442      -26.6461010429  MEOH      3017            0.0000000000
     46956      3709  MEOH      LP1A           27.6632418910      -10.7201228062      -27.3428600119  MEOH      3017            0.0000000000
     46957      3709  MEOH      LP1B           27.0774626674      -10.4487578485      -27.2172699614  MEOH      3017            0.0000000000
     46958      3710  MEOH      C1             -0.8682589889       -1.9007609095      -24.4688994321  MEOH      3018            0.0000000000
     46959      3710  MEOH      DC1            -0.8502844967       -1.9110336913      -24.4690630630  MEOH      3018            0.0000000000
     46960      3710  MEOH      O1              0.4705332722       -2.3922029766      -24.5704291163  MEOH      3018            0.0000000000
     46961      3710  MEOH      DO1             0.4799386237       -2.3957971613      -24.5737887106  MEOH      3018            0.0000000000
     46962      3710  MEOH      HO1             0.5078351353       -2.9456240988      -25.3661888995  MEOH      3018            0.0000000000
     46963      3710  MEOH      HO2             1.0419450155       -1.6115034845      -24.5004510913  MEOH      3018            0.0000000000
     46964      3710  MEOH      H1A            -0.9817015526       -1.2846390914      -23.5513779390  MEOH      3018            0.0000000000
     46965      3710  MEOH      H1B            -1.6027429114       -2.7326452737      -24.4157696652  MEOH      3018            0.0000000000
     46966      3710  MEOH      H1C            -1.1216434957       -1.2796221439      -25.3545087857  MEOH      3018            0.0000000000
     46967      3710  MEOH      LP1A            0.6670050552       -2.1674798758      -24.7531813159  MEOH      3018            0.0000000000
     46968      3710  MEOH      LP1B            0.5010449808       -2.6935715836      -24.3950837475  MEOH      3018            0.0000000000
     46969      3711  MEOH      C1             13.4080617806       26.2866489313        7.5661327862  MEOH      3019            0.0000000000
     46970      3711  MEOH      DC1            13.4186426284       26.2881353311        7.5685717486  MEOH      3019            0.0000000000
     46971      3711  MEOH      O1             12.8923232637       26.0355186025        6.2654552005  MEOH      3019            0.0000000000
     46972      3711  MEOH      DO1            12.9052019205       26.0352104678        6.2666630966  MEOH      3019            0.0000000000
     46973      3711  MEOH      HO1            12.4613790548       26.8487099925        5.9590129502  MEOH      3019            0.0000000000
     46974      3711  MEOH      HO2            13.6282424370       25.6506902835        5.7642265749  MEOH      3019            0.0000000000
     46975      3711  MEOH      H1A            13.7520891959       25.3294183462        8.0129837066  MEOH      3019            0.0000000000
     46976      3711  MEOH      H1B            12.6102128195       26.7143856726        8.2101819423  MEOH      3019            0.0000000000
     46977      3711  MEOH      H1C            14.2636445877       26.9938834650        7.5201069703  MEOH      3019            0.0000000000
     46978      3711  MEOH      LP1A           13.1347685580       26.1096901452        6.0241693503  MEOH      3019            0.0000000000
     46979      3711  MEOH      LP1B           12.5670489208       25.9083136607        6.2881599274  MEOH      3019            0.0000000000
     46980      3712  MEOH      C1            -11.1496130734        9.3080284284        2.5374072972  MEOH      3020            0.0000000000
     46981      3712  MEOH      DC1           -11.1558003579        9.3254671187        2.5431469492  MEOH      3020            0.0000000000
     46982      3712  MEOH      O1            -10.3871938191        8.3858507048        3.3196636724  MEOH      3020            0.0000000000
     46983      3712  MEOH      DO1           -10.3856079817        8.3965687380        3.3259979486  MEOH      3020            0.0000000000
     46984      3712  MEOH      HO1           -10.4274354162        7.5357414451        2.8542661431  MEOH      3020            0.0000000000
     46985      3712  MEOH      HO2            -9.5284909242        8.8117608950        3.4684247202  MEOH      3020            0.0000000000
     46986      3712  MEOH      H1A           -11.1456875601       10.3037893990        3.0301198718  MEOH      3020            0.0000000000
     46987      3712  MEOH      H1B           -12.1977969064        8.9511609992        2.4464276805  MEOH      3020            0.0000000000
     46988      3712  MEOH      H1C           -10.7019113077        9.3947835842        1.5243141762  MEOH      3020            0.0000000000
     46989      3712  MEOH      LP1A          -10.0518586362        8.3926807695        3.2196453476  MEOH      3020            0.0000000000
     46990      3712  MEOH      LP1B          -10.5925562674        8.2328958104        3.5582659882  MEOH      3020            0.0000000000
     46991      3713  MEOH      C1             -6.0832426749        8.6443291353      -19.3719119307  MEOH      3021            0.0000000000
     46992      3713  MEOH      DC1            -6.0641156183        8.6501581384      -19.3819201409  MEOH      3021            0.0000000000
     46993      3713  MEOH      O1             -6.9237400649        9.7027146077      -19.8168433458  MEOH      3021            0.0000000000
     46994      3713  MEOH      DO1            -6.9027076669        9.7125243563      -19.8339459805  MEOH      3021            0.0000000000
     46995      3713  MEOH      HO1            -7.6515667120        9.7360105456      -19.1764842650  MEOH      3021            0.0000000000
     46996      3713  MEOH      HO2            -6.3423968174       10.4641587190      -19.9689712380  MEOH      3021            0.0000000000
     46997      3713  MEOH      H1A            -5.3257399785        8.4128941178      -20.1509809247  MEOH      3021            0.0000000000
     46998      3713  MEOH      H1B            -6.6939417443        7.7342860276      -19.1897329249  MEOH      3021            0.0000000000
     46999      3713  MEOH      H1C            -5.5901602751        8.9364630241      -18.4201511736  MEOH      3021            0.0000000000
     47000      3713  MEOH      LP1A           -6.8199127662       10.0055589182      -19.6754035508  MEOH      3021            0.0000000000
     47001      3713  MEOH      LP1B           -7.1619069436        9.5798678009      -20.0419770836  MEOH      3021            0.0000000000
     47002      3714  MEOH      C1            -18.8012728019      -24.8414795263       -6.1542274050  MEOH      3022            0.0000000000
     47003      3714  MEOH      DC1           -18.7969744222      -24.8446230147       -6.1425103629  MEOH      3022            0.0000000000
     47004      3714  MEOH      O1            -19.6768065525      -24.6683988888       -7.2692441065  MEOH      3022            0.0000000000
     47005      3714  MEOH      DO1           -19.6669206190      -24.6811043329       -7.2624884586  MEOH      3022            0.0000000000
     47006      3714  MEOH      HO1           -19.1715479172      -24.3388674038       -8.0288642167  MEOH      3022            0.0000000000
     47007      3714  MEOH      HO2           -20.2245805202      -25.4669307801       -7.3257286183  MEOH      3022            0.0000000000
     47008      3714  MEOH      H1A           -19.4064795249      -24.9757037991       -5.2322568699  MEOH      3022            0.0000000000
     47009      3714  MEOH      H1B           -18.1529223599      -23.9463836159       -6.0412406110  MEOH      3022            0.0000000000
     47010      3714  MEOH      H1C           -18.1693661405      -25.7436627709       -6.2994181957  MEOH      3022            0.0000000000
     47011      3714  MEOH      LP1A          -19.6952008421      -24.9649863374       -7.4541698630  MEOH      3022            0.0000000000
     47012      3714  MEOH      LP1B          -19.8140097341      -24.3464422123       -7.2648639935  MEOH      3022            0.0000000000
     47013      3715  MEOH      C1             17.2424210201       30.2029342544      -22.8926256302  MEOH      3023            0.0000000000
     47014      3715  MEOH      DC1            17.2383149137       30.2053107965      -22.8975982957  MEOH      3023            0.0000000000
     47015      3715  MEOH      O1             16.2163635054       30.9831375496      -23.5083654738  MEOH      3023            0.0000000000
     47016      3715  MEOH      DO1            16.2108616668       30.9879409782      -23.5123792992  MEOH      3023            0.0000000000
     47017      3715  MEOH      HO1            15.4713651073       30.9956955730      -22.8873021253  MEOH      3023            0.0000000000
     47018      3715  MEOH      HO2            16.6398957369       31.8111069129      -23.7840232030  MEOH      3023            0.0000000000
     47019      3715  MEOH      H1A            18.0861959621       30.0577390175      -23.6006391829  MEOH      3023            0.0000000000
     47020      3715  MEOH      H1B            16.8308377651       29.2102666964      -22.6106126101  MEOH      3023            0.0000000000
     47021      3715  MEOH      H1C            17.6211451252       30.7162458579      -21.9830101890  MEOH      3023            0.0000000000
     47022      3715  MEOH      LP1A           16.2555616791       31.3205238004      -23.4239023400  MEOH      3023            0.0000000000
     47023      3715  MEOH      LP1B           16.0119628186       30.7782042035      -23.7051462729  MEOH      3023            0.0000000000
     47024      3716  MEOH      C1             -2.8611111220       17.9281435293      -10.5663742265  MEOH      3024            0.0000000000
     47025      3716  MEOH      DC1            -2.8577750686       17.9392432497      -10.5793225314  MEOH      3024            0.0000000000
     47026      3716  MEOH      O1             -2.9360983967       17.1078256068       -9.4010111605  MEOH      3024            0.0000000000
     47027      3716  MEOH      DO1            -2.9362610641       17.1191081666       -9.4009192635  MEOH      3024            0.0000000000
     47028      3716  MEOH      HO1            -2.7783394270       17.6474460472       -8.6105544006  MEOH      3024            0.0000000000
     47029      3716  MEOH      HO2            -3.7285660356       16.5581116210       -9.5044982367  MEOH      3024            0.0000000000
     47030      3716  MEOH      H1A            -2.9704682053       17.2941844098      -11.4721655177  MEOH      3024            0.0000000000
     47031      3716  MEOH      H1B            -1.8754168884       18.4398274618      -10.5964978527  MEOH      3024            0.0000000000
     47032      3716  MEOH      H1C            -3.6833777429       18.6749482880      -10.5444366530  MEOH      3024            0.0000000000
     47033      3716  MEOH      LP1A           -3.2657771733       17.0957883794       -9.2841051753  MEOH      3024            0.0000000000
     47034      3716  MEOH      LP1B           -2.6211988548       16.9730976870       -9.3289926476  MEOH      3024            0.0000000000
     47035      3717  MEOH      C1            -28.4134369576      -20.1620742576       18.5019103448  MEOH      3025            0.0000000000
     47036      3717  MEOH      DC1           -28.4130086641      -20.1619903490       18.5005449747  MEOH      3025            0.0000000000
     47037      3717  MEOH      O1            -29.7165256615      -19.8647359626       18.0145772954  MEOH      3025            0.0000000000
     47038      3717  MEOH      DO1           -29.7108319190      -19.8628803428       18.0107703826  MEOH      3025            0.0000000000
     47039      3717  MEOH      HO1           -30.3531542210      -20.1225181461       18.6995243179  MEOH      3025            0.0000000000
     47040      3717  MEOH      HO2           -29.6746454348      -18.9495042406       17.6959914488  MEOH      3025            0.0000000000
     47041      3717  MEOH      H1A           -27.6585428597      -19.9602630819       17.7121457273  MEOH      3025            0.0000000000
     47042      3717  MEOH      H1B           -28.3374654169      -21.2278805263       18.8062232145  MEOH      3025            0.0000000000
     47043      3717  MEOH      H1C           -28.2113826797      -19.5186030677       19.3847692796  MEOH      3025            0.0000000000
     47044      3717  MEOH      LP1A          -29.8043765914      -19.5368998964       18.1000508455  MEOH      3025            0.0000000000
     47045      3717  MEOH      LP1B          -29.8434116147      -20.1385668667       17.8373300363  MEOH      3025            0.0000000000
     47046      3718  MEOH      C1              2.5376752588       25.4305878232       -4.8413661750  MEOH      3026            0.0000000000
     47047      3718  MEOH      DC1             2.5449702225       25.4258558362       -4.8451225973  MEOH      3026            0.0000000000
     47048      3718  MEOH      O1              3.3176972448       24.5433112271       -5.6466696042  MEOH      3026            0.0000000000
     47049      3718  MEOH      DO1             3.3241873067       24.5375247142       -5.6513360584  MEOH      3026            0.0000000000
     47050      3718  MEOH      HO1             3.9252494299       24.0854088612       -5.0449173567  MEOH      3026            0.0000000000
     47051      3718  MEOH      HO2             2.6798622571       24.0392920319       -6.1758493274  MEOH      3026            0.0000000000
     47052      3718  MEOH      H1A             1.8966368176       26.0640123574       -5.4911077216  MEOH      3026            0.0000000000
     47053      3718  MEOH      H1B             3.2046786430       26.0825282746       -4.2377097054  MEOH      3026            0.0000000000
     47054      3718  MEOH      H1C             1.8830602706       24.8512545294       -4.1556744409  MEOH      3026            0.0000000000
     47055      3718  MEOH      LP1A            3.1568741457       24.2336318061       -5.6737728688  MEOH      3026            0.0000000000
     47056      3718  MEOH      LP1B            3.6034975391       24.7079494153       -5.7637698126  MEOH      3026            0.0000000000
     47057      3719  MEOH      C1             -6.0092093627      -36.4497256600      -14.0422421087  MEOH      3027            0.0000000000
     47058      3719  MEOH      DC1            -6.0152221440      -36.4318223295      -14.0416960872  MEOH      3027            0.0000000000
     47059      3719  MEOH      O1             -5.5549281469      -35.1188667577      -13.9426146151  MEOH      3027            0.0000000000
     47060      3719  MEOH      DO1            -5.5520738775      -35.1058580101      -13.9395134185  MEOH      3027            0.0000000000
     47061      3719  MEOH      HO1            -4.5880823798      -35.1965959810      -13.9508262240  MEOH      3027            0.0000000000
     47062      3719  MEOH      HO2            -6.0018792973      -34.6641860949      -14.6736414038  MEOH      3027            0.0000000000
     47063      3719  MEOH      H1A            -7.1182564104      -36.5095429990      -14.0697654308  MEOH      3027            0.0000000000
     47064      3719  MEOH      H1B            -5.6346050624      -37.0661775261      -13.1972689046  MEOH      3027            0.0000000000
     47065      3719  MEOH      H1C            -5.6109560890      -36.8269293986      -15.0083853018  MEOH      3027            0.0000000000
     47066      3719  MEOH      LP1A           -5.5225779328      -34.9792014318      -14.2619061126  MEOH      3027            0.0000000000
     47067      3719  MEOH      LP1B           -5.5209982340      -35.0288340893      -13.6060988211  MEOH      3027            0.0000000000
     47068      3720  MEOH      C1            -20.3841648632       -4.2251032708      -30.2166762332  MEOH      3028            0.0000000000
     47069      3720  MEOH      DC1           -20.3823674433       -4.2285145552      -30.2215766279  MEOH      3028            0.0000000000
     47070      3720  MEOH      O1            -20.7940859874       -2.8723117266      -30.4134648565  MEOH      3028            0.0000000000
     47071      3720  MEOH      DO1           -20.7965866833       -2.8755673354      -30.4237195625  MEOH      3028            0.0000000000
     47072      3720  MEOH      HO1           -21.3153610206       -2.6052801312      -29.6402466027  MEOH      3028            0.0000000000
     47073      3720  MEOH      HO2           -19.9887507084       -2.3846692018      -30.6470025547  MEOH      3028            0.0000000000
     47074      3720  MEOH      H1A           -19.8073573889       -4.5704664390      -31.1011751990  MEOH      3028            0.0000000000
     47075      3720  MEOH      H1B           -21.2771284080       -4.8733618049      -30.0874555668  MEOH      3028            0.0000000000
     47076      3720  MEOH      H1C           -19.7424787716       -4.2969476583      -29.3125753839  MEOH      3028            0.0000000000
     47077      3720  MEOH      LP1A          -20.5517145108       -2.6540996277      -30.2864233387  MEOH      3028            0.0000000000
     47078      3720  MEOH      LP1B          -21.0998023886       -2.8634156470      -30.5836363636  MEOH      3028            0.0000000000
     47079      3721  MEOH      C1            -22.7484582353      -24.0204723653       36.3819812731  MEOH      3029            0.0000000000
     47080      3721  MEOH      DC1           -22.7482262406      -24.0267256070       36.3958569504  MEOH      3029            0.0000000000
     47081      3721  MEOH      O1            -21.4844014900      -24.2246774900       37.0151503605  MEOH      3029            0.0000000000
     47082      3721  MEOH      DO1           -21.4851159004      -24.2336337231       37.0294458720  MEOH      3029            0.0000000000
     47083      3721  MEOH      HO1           -21.1925907427      -23.3630544571       37.3518286000  MEOH      3029            0.0000000000
     47084      3721  MEOH      HO2           -21.5852413831      -24.9972264853       37.5929906219  MEOH      3029            0.0000000000
     47085      3721  MEOH      H1A           -23.0141670428      -24.9061331539       35.7660877777  MEOH      3029            0.0000000000
     47086      3721  MEOH      H1B           -22.7006460908      -23.1352449722       35.7123489401  MEOH      3029            0.0000000000
     47087      3721  MEOH      H1C           -23.5369138949      -23.8638342954       37.1488731754  MEOH      3029            0.0000000000
     47088      3721  MEOH      LP1A          -21.5312088062      -24.3071525390       37.3520582729  MEOH      3029            0.0000000000
     47089      3721  MEOH      LP1B          -21.2262297198      -24.1875970164       36.7817571826  MEOH      3029            0.0000000000
     47090      3722  MEOH      C1             28.7257532052       24.7452622587      -13.0858437292  MEOH      3030            0.0000000000
     47091      3722  MEOH      DC1            28.7283759610       24.7520012076      -13.0837880051  MEOH      3030            0.0000000000
     47092      3722  MEOH      O1             27.6637753421       24.0085618552      -13.6861262251  MEOH      3030            0.0000000000
     47093      3722  MEOH      DO1            27.6741505226       24.0141884732      -13.6847088743  MEOH      3030            0.0000000000
     47094      3722  MEOH      HO1            27.4654925894       23.2311386914      -13.1409682890  MEOH      3030            0.0000000000
     47095      3722  MEOH      HO2            26.9669273152       24.6461329134      -13.9070469647  MEOH      3030            0.0000000000
     47096      3722  MEOH      H1A            29.0509433590       25.5435369061      -13.7867930513  MEOH      3030            0.0000000000
     47097      3722  MEOH      H1B            29.5873179605       24.0742912697      -12.8813318609  MEOH      3030            0.0000000000
     47098      3722  MEOH      H1C            28.3729007407       25.2099320253      -12.1403818587  MEOH      3030            0.0000000000
     47099      3722  MEOH      LP1A           27.3555087066       24.1264032410      -13.5695711342  MEOH      3030            0.0000000000
     47100      3722  MEOH      LP1B           27.7931257439       23.7746272390      -13.9120533569  MEOH      3030            0.0000000000
     47101      3723  MEOH      C1             20.6099583141       11.2831884609       -0.1349171997  MEOH      3031            0.0000000000
     47102      3723  MEOH      DC1            20.6012300349       11.2788580047       -0.1248813330  MEOH      3031            0.0000000000
     47103      3723  MEOH      O1             21.4779136469       11.9906412091        0.7484850968  MEOH      3031            0.0000000000
     47104      3723  MEOH      DO1            21.4701501056       11.9755873935        0.7631173896  MEOH      3031            0.0000000000
     47105      3723  MEOH      HO1            22.3151239711       12.1083797477        0.2729679997  MEOH      3031            0.0000000000
     47106      3723  MEOH      HO2            20.9794342862       12.7755982321        1.0246386776  MEOH      3031            0.0000000000
     47107      3723  MEOH      H1A            19.5933239664       11.2048260382        0.3062572950  MEOH      3031            0.0000000000
     47108      3723  MEOH      H1B            21.0016194046       10.2596812285       -0.3175521785  MEOH      3031            0.0000000000
     47109      3723  MEOH      H1C            20.5575572797       11.8183224863       -1.1071346183  MEOH      3031            0.0000000000
     47110      3723  MEOH      LP1A           21.4375181859       12.3355963459        0.7051935227  MEOH      3031            0.0000000000
     47111      3723  MEOH      LP1B           21.6557297510       11.7646598150        0.9480191606  MEOH      3031            0.0000000000
     47112      3724  MEOH      C1             23.7629722504       23.4439587373       -3.7675224217  MEOH      3032            0.0000000000
     47113      3724  MEOH      DC1            23.7663297701       23.4473949194       -3.7634492059  MEOH      3032            0.0000000000
     47114      3724  MEOH      O1             24.9781928226       22.7052050834       -3.6214496169  MEOH      3032            0.0000000000
     47115      3724  MEOH      DO1            24.9861251082       22.7150872365       -3.6154739905  MEOH      3032            0.0000000000
     47116      3724  MEOH      HO1            25.1646754945       22.3088449756       -4.4869106952  MEOH      3032            0.0000000000
     47117      3724  MEOH      HO2            25.6130832800       23.3027269957       -3.1962653354  MEOH      3032            0.0000000000
     47118      3724  MEOH      H1A            23.4075086084       23.7944322261       -2.7749827827  MEOH      3032            0.0000000000
     47119      3724  MEOH      H1B            22.9818343997       22.8006691987       -4.2261325264  MEOH      3032            0.0000000000
     47120      3724  MEOH      H1C            23.9327670223       24.3259012299       -4.4214858574  MEOH      3032            0.0000000000
     47121      3724  MEOH      LP1A           25.2526493322       22.9117128523       -3.6887412640  MEOH      3032            0.0000000000
     47122      3724  MEOH      LP1B           24.9078258800       22.3781201441       -3.5186686075  MEOH      3032            0.0000000000
     47123      3725  MEOH      C1             35.8009894361        0.6308830523       23.5754517528  MEOH      3033            0.0000000000
     47124      3725  MEOH      DC1            35.8102645725        0.6378912633       23.5717756988  MEOH      3033            0.0000000000
     47125      3725  MEOH      O1             36.7380251348       -0.4461692040       23.6060684180  MEOH      3033            0.0000000000
     47126      3725  MEOH      DO1            36.7498639503       -0.4441774163       23.6016528398  MEOH      3033            0.0000000000
     47127      3725  MEOH      HO1            36.6484513937       -0.8356640599       24.4899068099  MEOH      3033            0.0000000000
     47128      3725  MEOH      HO2            36.5343153568       -0.9848838438       22.8255629002  MEOH      3033            0.0000000000
     47129      3725  MEOH      H1A            35.8350049697        1.1310610854       22.5839953093  MEOH      3033            0.0000000000
     47130      3725  MEOH      H1B            36.0497451895        1.3711352391       24.3656848040  MEOH      3033            0.0000000000
     47131      3725  MEOH      H1C            34.7755512373        0.2419118616       23.7529310903  MEOH      3033            0.0000000000
     47132      3725  MEOH      LP1A           36.5869115125       -0.7396509134       23.4897363096  MEOH      3033            0.0000000000
     47133      3725  MEOH      LP1B           37.0493877888       -0.3308429298       23.7167623572  MEOH      3033            0.0000000000
     47134      3726  MEOH      C1            -20.0537742344      -32.4943754631      -12.5092814501  MEOH      3034            0.0000000000
     47135      3726  MEOH      DC1           -20.0497764650      -32.4842536352      -12.5064091392  MEOH      3034            0.0000000000
     47136      3726  MEOH      O1            -19.9834028582      -33.3952856297      -13.6195948565  MEOH      3034            0.0000000000
     47137      3726  MEOH      DO1           -19.9765938178      -33.3806414388      -13.6177137565  MEOH      3034            0.0000000000
     47138      3726  MEOH      HO1           -19.3412579947      -34.0918185081      -13.4112875748  MEOH      3034            0.0000000000
     47139      3726  MEOH      HO2           -20.8989394626      -33.6525672753      -13.8106416623  MEOH      3034            0.0000000000
     47140      3726  MEOH      H1A           -20.8215386726      -31.7186315153      -12.7168389015  MEOH      3034            0.0000000000
     47141      3726  MEOH      H1B           -19.0728623763      -31.9996898949      -12.3436942668  MEOH      3034            0.0000000000
     47142      3726  MEOH      H1C           -20.3336706065      -33.0414284033      -11.5836940136  MEOH      3034            0.0000000000
     47143      3726  MEOH      LP1A          -20.2214670515      -33.6492241698      -13.5829798635  MEOH      3034            0.0000000000
     47144      3726  MEOH      LP1B          -19.7413961526      -33.2857422062      -13.8474829712  MEOH      3034            0.0000000000
     47145      3727  MEOH      C1            -21.7345663858        0.5084385651      -14.1755489702  MEOH      3035            0.0000000000
     47146      3727  MEOH      DC1           -21.7507990553        0.4997409053      -14.1652230838  MEOH      3035            0.0000000000
     47147      3727  MEOH      O1            -22.4238899535       -0.2583320982      -13.1831172630  MEOH      3035            0.0000000000
     47148      3727  MEOH      DO1           -22.4475443688       -0.2662171519      -13.1769438944  MEOH      3035            0.0000000000
     47149      3727  MEOH      HO1           -22.0595417143       -1.1533976563      -13.2668311052  MEOH      3035            0.0000000000
     47150      3727  MEOH      HO2           -22.3001269839        0.2272495329      -12.3525793603  MEOH      3035            0.0000000000
     47151      3727  MEOH      H1A           -22.0291415555        1.5779905923      -14.1155078760  MEOH      3035            0.0000000000
     47152      3727  MEOH      H1B           -21.9713801361        0.1224465078      -15.1900687482  MEOH      3035            0.0000000000
     47153      3727  MEOH      H1C           -20.6376604756        0.4349724490      -14.0151708110  MEOH      3035            0.0000000000
     47154      3727  MEOH      LP1A          -22.2512426576       -0.2433802515      -12.8790295232  MEOH      3035            0.0000000000
     47155      3727  MEOH      LP1B          -22.7177650958       -0.3922221953      -13.3180648182  MEOH      3035            0.0000000000
     47156      3728  MEOH      C1             -1.0104840328      -35.7149174813        2.6540620625  MEOH      3036            0.0000000000
     47157      3728  MEOH      DC1            -1.0267615813      -35.7053473682        2.6527493230  MEOH      3036            0.0000000000
     47158      3728  MEOH      O1             -0.2825210997      -34.5104480585        2.8916358498  MEOH      3036            0.0000000000
     47159      3728  MEOH      DO1            -0.2989524747      -34.4968476286        2.8924865365  MEOH      3036            0.0000000000
     47160      3728  MEOH      HO1             0.4262473365      -34.4790955317        2.2301493993  MEOH      3036            0.0000000000
     47161      3728  MEOH      HO2            -0.9371179280      -33.8025267491        2.9977038091  MEOH      3036            0.0000000000
     47162      3728  MEOH      H1A            -1.7338642869      -35.8988026830        3.4770008458  MEOH      3036            0.0000000000
     47163      3728  MEOH      H1B            -0.3152007919      -36.5814601435        2.6565175793  MEOH      3036            0.0000000000
     47164      3728  MEOH      H1C            -1.5250348097      -35.6827965132        1.6699244991  MEOH      3036            0.0000000000
     47165      3728  MEOH      LP1A           -0.4243368239      -34.2470496538        2.7099504603  MEOH      3036            0.0000000000
     47166      3728  MEOH      LP1B           -0.0256000610      -34.5692973400        3.1219146850  MEOH      3036            0.0000000000
     47167      3729  MEOH      C1            -24.2115268981       -8.9411153030      -36.0652404148  MEOH      3037            0.0000000000
     47168      3729  MEOH      DC1           -24.2070766228       -8.9479499781      -36.0627054166  MEOH      3037            0.0000000000
     47169      3729  MEOH      O1            -24.0668468244       -9.5888020395      -37.3302235558  MEOH      3037            0.0000000000
     47170      3729  MEOH      DO1           -24.0767106813       -9.5909289901      -37.3273069925  MEOH      3037            0.0000000000
     47171      3729  MEOH      HO1           -23.2780511126      -10.1522008885      -37.2944036991  MEOH      3037            0.0000000000
     47172      3729  MEOH      HO2           -24.9347851744       -9.9719185781      -37.5322253878  MEOH      3037            0.0000000000
     47173      3729  MEOH      H1A           -25.0335882433       -8.1949821351      -36.1079187611  MEOH      3037            0.0000000000
     47174      3729  MEOH      H1B           -23.2716400345       -8.4112868957      -35.8002582597  MEOH      3037            0.0000000000
     47175      3729  MEOH      H1C           -24.4567948720       -9.6918559105      -35.2838614013  MEOH      3037            0.0000000000
     47176      3729  MEOH      LP1A          -24.2433277418       -9.8910504686      -37.3308342492  MEOH      3037            0.0000000000
     47177      3729  MEOH      LP1B          -23.8755638896       -9.3897995818      -37.5454184923  MEOH      3037            0.0000000000
     47178      3730  MEOH      C1              3.8192495964       26.2155024493       16.0647029961  MEOH      3038            0.0000000000
     47179      3730  MEOH      DC1             3.8327718756       26.2204465017       16.0685185055  MEOH      3038            0.0000000000
     47180      3730  MEOH      O1              3.8480362327       25.3265057876       14.9548725892  MEOH      3038            0.0000000000
     47181      3730  MEOH      DO1             3.8660664634       25.3309870524       14.9606666033  MEOH      3038            0.0000000000
     47182      3730  MEOH      HO1             3.0642160148       24.7601917200       15.0311237723  MEOH      3038            0.0000000000
     47183      3730  MEOH      HO2             3.9527296916       25.8929965153       14.1744704264  MEOH      3038            0.0000000000
     47184      3730  MEOH      H1A             4.7346159666       26.8448814279       16.0471670151  MEOH      3038            0.0000000000
     47185      3730  MEOH      H1B             3.8124186463       25.6282167913       17.0077670947  MEOH      3038            0.0000000000
     47186      3730  MEOH      H1C             2.9177246791       26.8636386412       16.0260597290  MEOH      3038            0.0000000000
     47187      3730  MEOH      LP1A            3.6820654069       25.4700314166       14.6821931458  MEOH      3038            0.0000000000
     47188      3730  MEOH      LP1B            4.0286070186       25.0381792676       15.0371040256  MEOH      3038            0.0000000000
     47189      3731  MEOH      C1            -22.9944983660      -28.0423409468      -34.1006636754  MEOH      3039            0.0000000000
     47190      3731  MEOH      DC1           -22.9838703140      -28.0471122872      -34.1006553080  MEOH      3039            0.0000000000
     47191      3731  MEOH      O1            -22.3635688702      -29.2915064792      -33.8070787865  MEOH      3039            0.0000000000
     47192      3731  MEOH      DO1           -22.3474969166      -29.2957210025      -33.8169948984  MEOH      3039            0.0000000000
     47193      3731  MEOH      HO1           -22.7055360423      -29.9432520354      -34.4388906127  MEOH      3039            0.0000000000
     47194      3731  MEOH      HO2           -21.4156348779      -29.1084533844      -33.7132027479  MEOH      3039            0.0000000000
     47195      3731  MEOH      H1A           -22.7819543817      -27.3123846430      -33.2905341492  MEOH      3039            0.0000000000
     47196      3731  MEOH      H1B           -24.0961411057      -28.1751261529      -34.1560925935  MEOH      3039            0.0000000000
     47197      3731  MEOH      H1C           -22.6228551325      -27.6420442451      -35.0681164434  MEOH      3039            0.0000000000
     47198      3731  MEOH      LP1A          -22.0643203287      -29.3195410793      -33.9864230688  MEOH      3039            0.0000000000
     47199      3731  MEOH      LP1B          -22.5513611167      -29.4676689989      -33.5700116256  MEOH      3039            0.0000000000
     47200      3732  MEOH      C1            -11.5472580786      -31.7005436427       -4.2371992546  MEOH      3040            0.0000000000
     47201      3732  MEOH      DC1           -11.5551430541      -31.6974595452       -4.2326162693  MEOH      3040            0.0000000000
     47202      3732  MEOH      O1            -11.2888769679      -31.8729398736       -5.6332726320  MEOH      3040            0.0000000000
     47203      3732  MEOH      DO1           -11.3027847026      -31.8612787156       -5.6307227753  MEOH      3040            0.0000000000
     47204      3732  MEOH      HO1           -12.0136036712      -32.3704824499       -6.0433001820  MEOH      3040            0.0000000000
     47205      3732  MEOH      HO2           -10.9356576487      -31.0383101860       -5.9790028694  MEOH      3040            0.0000000000
     47206      3732  MEOH      H1A           -10.5968352183      -31.4421669955       -3.7231380748  MEOH      3040            0.0000000000
     47207      3732  MEOH      H1B           -11.9570194786      -32.6337349484       -3.7949656256  MEOH      3040            0.0000000000
     47208      3732  MEOH      H1C           -12.2612265314      -30.8635891387       -4.0820309373  MEOH      3040            0.0000000000
     47209      3732  MEOH      LP1A          -11.4195456620      -31.6028230050       -5.8134463528  MEOH      3040            0.0000000000
     47210      3732  MEOH      LP1B          -11.1050887363      -32.1661547486       -5.6856837280  MEOH      3040            0.0000000000
     47211      3733  MEOH      C1             13.9389835957      -27.6773846725       17.7690056370  MEOH      3041            0.0000000000
     47212      3733  MEOH      DC1            13.9196584175      -27.6539701049       17.7741524586  MEOH      3041            0.0000000000
     47213      3733  MEOH      O1             13.8497241630      -26.8004532572       18.8902843853  MEOH      3041            0.0000000000
     47214      3733  MEOH      DO1            13.8351128750      -26.7820175294       18.8997267807  MEOH      3041            0.0000000000
     47215      3733  MEOH      HO1            13.3254990190      -27.2938848502       19.5403715037  MEOH      3041            0.0000000000
     47216      3733  MEOH      HO2            14.7684749645      -26.5752462324       19.1049440280  MEOH      3041            0.0000000000
     47217      3733  MEOH      H1A            14.5964235916      -27.2399815383       16.9874865070  MEOH      3041            0.0000000000
     47218      3733  MEOH      H1B            12.9298662253      -27.8412670747       17.3340968065  MEOH      3041            0.0000000000
     47219      3733  MEOH      H1C            14.3588009269      -28.6573357386       18.0816880933  MEOH      3041            0.0000000000
     47220      3733  MEOH      LP1A           14.1209614164      -26.8529170979       19.1051748173  MEOH      3041            0.0000000000
     47221      3733  MEOH      LP1B           13.5697240649      -26.5929529086       18.8579803546  MEOH      3041            0.0000000000
     47222      3734  MEOH      C1            -29.4899026539      -33.6797694076       31.1643890558  MEOH      3042            0.0000000000
     47223      3734  MEOH      DC1           -29.4974959362      -33.6771041681       31.1722829738  MEOH      3042            0.0000000000
     47224      3734  MEOH      O1            -30.5050586381      -32.6820962931       31.0426521309  MEOH      3042            0.0000000000
     47225      3734  MEOH      DO1           -30.5075796552      -32.6838093769       31.0505395849  MEOH      3042            0.0000000000
     47226      3734  MEOH      HO1           -31.2854635285      -33.0969158712       30.6429110590  MEOH      3042            0.0000000000
     47227      3734  MEOH      HO2           -30.5552259162      -32.2312245394       31.9000306392  MEOH      3042            0.0000000000
     47228      3734  MEOH      H1A           -28.5326598976      -33.2007303816       31.4619271522  MEOH      3042            0.0000000000
     47229      3734  MEOH      H1B           -29.3282107645      -34.1931140871       30.1924559441  MEOH      3042            0.0000000000
     47230      3734  MEOH      H1C           -29.7685951548      -34.4216363177       31.9430320918  MEOH      3042            0.0000000000
     47231      3734  MEOH      LP1A          -30.6986760801      -32.6721452981       31.3340509364  MEOH      3042            0.0000000000
     47232      3734  MEOH      LP1B          -30.4745095006      -32.5170853461       30.7355069900  MEOH      3042            0.0000000000
     47233      3735  MEOH      C1            -30.7489168085      -31.9044133364      -34.8848899616  MEOH      3043            0.0000000000
     47234      3735  MEOH      DC1           -30.7555188734      -31.9062488803      -34.8932715189  MEOH      3043            0.0000000000
     47235      3735  MEOH      O1            -29.6306800932      -32.3412517621      -34.1115833963  MEOH      3043            0.0000000000
     47236      3735  MEOH      DO1           -29.6368151953      -32.3277443301      -34.0984950796  MEOH      3043            0.0000000000
     47237      3735  MEOH      HO1           -28.9344386686      -31.6714740947      -34.1984497015  MEOH      3043            0.0000000000
     47238      3735  MEOH      HO2           -29.9765745393      -32.6343160531      -33.2540460184  MEOH      3043            0.0000000000
     47239      3735  MEOH      H1A           -31.4673931721      -32.7418796209      -35.0143617258  MEOH      3043            0.0000000000
     47240      3735  MEOH      H1B           -30.4091037779      -31.5610594288      -35.8853679466  MEOH      3043            0.0000000000
     47241      3735  MEOH      H1C           -31.2465727588      -31.0604489849      -34.3610734577  MEOH      3043            0.0000000000
     47242      3735  MEOH      LP1A          -29.6593840728      -32.2243002622      -33.7829522532  MEOH      3043            0.0000000000
     47243      3735  MEOH      LP1B          -29.4202938075      -32.5408703303      -34.3075171556  MEOH      3043            0.0000000000
     47244      3736  MEOH      C1            -17.4681056778       17.5019106445      -10.0919761616  MEOH      3044            0.0000000000
     47245      3736  MEOH      DC1           -17.4744745678       17.4985772626      -10.0856095724  MEOH      3044            0.0000000000
     47246      3736  MEOH      O1            -16.6222939881       18.6151413262      -10.3357954097  MEOH      3044            0.0000000000
     47247      3736  MEOH      DO1           -16.6331515425       18.6180485764      -10.3356519315  MEOH      3044            0.0000000000
     47248      3736  MEOH      HO1           -16.1089822218       18.7964389799       -9.5329615593  MEOH      3044            0.0000000000
     47249      3736  MEOH      HO2           -16.1326274462       18.3973909981      -11.1443196661  MEOH      3044            0.0000000000
     47250      3736  MEOH      H1A           -18.0543686853       17.3004244450      -11.0139414528  MEOH      3044            0.0000000000
     47251      3736  MEOH      H1B           -18.1571510136       17.7453595528       -9.2551547027  MEOH      3044            0.0000000000
     47252      3736  MEOH      H1C           -16.8630955462       16.6061034314       -9.8354353663  MEOH      3044            0.0000000000
     47253      3736  MEOH      LP1A          -16.3165321300       18.5066758675      -10.4671153639  MEOH      3044            0.0000000000
     47254      3736  MEOH      LP1B          -16.7894727973       18.9121797856      -10.2563007597  MEOH      3044            0.0000000000
     47255      3737  MEOH      C1            -22.5625340148        4.6973357795       18.9087506149  MEOH      3045            0.0000000000
     47256      3737  MEOH      DC1           -22.5790609057        4.6997488457       18.9157978426  MEOH      3045            0.0000000000
     47257      3737  MEOH      O1            -23.7939341856        4.3602124405       19.5427098782  MEOH      3045            0.0000000000
     47258      3737  MEOH      DO1           -23.8102213764        4.3565054729       19.5399099631  MEOH      3045            0.0000000000
     47259      3737  MEOH      HO1           -24.2414996172        3.7479214763       18.9379909685  MEOH      3045            0.0000000000
     47260      3737  MEOH      HO2           -23.5557350244        4.0685535408       20.4366317128  MEOH      3045            0.0000000000
     47261      3737  MEOH      H1A           -21.9925708508        5.4114566273       19.5408063150  MEOH      3045            0.0000000000
     47262      3737  MEOH      H1B           -22.7484316571        5.1848538649       17.9278891653  MEOH      3045            0.0000000000
     47263      3737  MEOH      H1C           -21.9503369346        3.7837862364       18.7507538828  MEOH      3045            0.0000000000
     47264      3737  MEOH      LP1A          -23.7497282559        4.0812227873       19.7493753306  MEOH      3045            0.0000000000
     47265      3737  MEOH      LP1B          -24.0422480317        4.5893439492       19.4513918320  MEOH      3045            0.0000000000
     47266      3738  MEOH      C1            -32.0956962563       14.1136472637       13.2142099215  MEOH      3046            0.0000000000
     47267      3738  MEOH      DC1           -32.0882211094       14.1307281666       13.2348021602  MEOH      3046            0.0000000000
     47268      3738  MEOH      O1            -31.8972222997       15.2373795566       14.0593370614  MEOH      3046            0.0000000000
     47269      3738  MEOH      DO1           -31.8971930445       15.2455336002       14.0749678198  MEOH      3046            0.0000000000
     47270      3738  MEOH      HO1           -31.4411675243       15.9006646674       13.5180728897  MEOH      3046            0.0000000000
     47271      3738  MEOH      HO2           -32.7774790569       15.4364812477       14.4148740635  MEOH      3046            0.0000000000
     47272      3738  MEOH      H1A           -32.6801900464       13.3180727282       13.7238658522  MEOH      3046            0.0000000000
     47273      3738  MEOH      H1B           -31.1284406041       13.6917882878       12.8666865281  MEOH      3046            0.0000000000
     47274      3738  MEOH      H1C           -32.6673287868       14.4796460327       12.3346633613  MEOH      3046            0.0000000000
     47275      3738  MEOH      LP1A          -32.1732757924       15.4516997304       14.0403283183  MEOH      3046            0.0000000000
     47276      3738  MEOH      LP1B          -31.5928607869       15.2069537596       14.2294497899  MEOH      3046            0.0000000000
     47277      3739  MEOH      C1             26.9989060250      -25.4900708141       34.2977685158  MEOH      3047            0.0000000000
     47278      3739  MEOH      DC1            27.0001652379      -25.4863437847       34.2965768102  MEOH      3047            0.0000000000
     47279      3739  MEOH      O1             25.6611520350      -25.3583491240       34.7832729740  MEOH      3047            0.0000000000
     47280      3739  MEOH      DO1            25.6644703883      -25.3496763985       34.7770031322  MEOH      3047            0.0000000000
     47281      3739  MEOH      HO1            25.0892075995      -25.1370615240       34.0317336456  MEOH      3047            0.0000000000
     47282      3739  MEOH      HO2            25.4854981532      -26.1677834606       35.2881113328  MEOH      3047            0.0000000000
     47283      3739  MEOH      H1A            27.6769204606      -25.7431106563       35.1407324921  MEOH      3047            0.0000000000
     47284      3739  MEOH      H1B            27.3302439013      -24.5359392047       33.8349844584  MEOH      3047            0.0000000000
     47285      3739  MEOH      H1C            27.0579290398      -26.2971553401       33.5365511670  MEOH      3047            0.0000000000
     47286      3739  MEOH      LP1A           25.4994165514      -25.6686058038       34.7741940975  MEOH      3047            0.0000000000
     47287      3739  MEOH      LP1B           25.6024129412      -25.0284368667       34.8843057477  MEOH      3047            0.0000000000
     47288      3740  MEOH      C1            -31.4821541326       -9.0360014868       -0.1856324225  MEOH      3048            0.0000000000
     47289      3740  MEOH      DC1           -31.4719192570       -9.0414043875       -0.1805177370  MEOH      3048            0.0000000000
     47290      3740  MEOH      O1            -31.9055571310       -7.6860040306       -0.3557756307  MEOH      3048            0.0000000000
     47291      3740  MEOH      DO1           -31.9014491927       -7.6979191960       -0.3610283994  MEOH      3048            0.0000000000
     47292      3740  MEOH      HO1           -32.8720195334       -7.6577843744       -0.2779676899  MEOH      3048            0.0000000000
     47293      3740  MEOH      HO2           -31.3655545250       -7.1600935785        0.2547285731  MEOH      3048            0.0000000000
     47294      3740  MEOH      H1A           -30.3825434819       -9.0930257858       -0.3337055342  MEOH      3048            0.0000000000
     47295      3740  MEOH      H1B           -31.9833581085       -9.6841797834       -0.9359526678  MEOH      3048            0.0000000000
     47296      3740  MEOH      H1C           -31.7390776237       -9.3861708581        0.8369587628  MEOH      3048            0.0000000000
     47297      3740  MEOH      LP1A          -31.9081412106       -7.5215189105       -0.0468452700  MEOH      3048            0.0000000000
     47298      3740  MEOH      LP1B          -31.9631881137       -7.6204358028       -0.6947143823  MEOH      3048            0.0000000000
     47299      3741  MEOH      C1            -10.4900922656       15.0667578426      -18.1315924964  MEOH      3049            0.0000000000
     47300      3741  MEOH      DC1           -10.5014620134       15.0766117455      -18.1306356057  MEOH      3049            0.0000000000
     47301      3741  MEOH      O1            -11.6035934565       15.4653304736      -17.3302509602  MEOH      3049            0.0000000000
     47302      3741  MEOH      DO1           -11.6139820718       15.4815743249      -17.3382453233  MEOH      3049            0.0000000000
     47303      3741  MEOH      HO1           -11.6835757952       16.4298139798      -17.3956297930  MEOH      3049            0.0000000000
     47304      3741  MEOH      HO2           -12.3396979569       14.8863998679      -17.5830147211  MEOH      3049            0.0000000000
     47305      3741  MEOH      H1A           -10.2967367976       13.9832178389      -17.9803452645  MEOH      3049            0.0000000000
     47306      3741  MEOH      H1B            -9.5783222628       15.6291201862      -17.8370673586  MEOH      3049            0.0000000000
     47307      3741  MEOH      H1C           -10.7042540416       15.2506813368      -19.2061286205  MEOH      3049            0.0000000000
     47308      3741  MEOH      LP1A          -11.8968295496       15.4591508144      -17.5212336963  MEOH      3049            0.0000000000
     47309      3741  MEOH      LP1B          -11.4988257454       15.5273459748      -17.0021079969  MEOH      3049            0.0000000000
     47310      3742  MEOH      C1            -23.5944223608       -6.8732529348       19.4957710703  MEOH      3050            0.0000000000
     47311      3742  MEOH      DC1           -23.6067850449       -6.8864713272       19.5070132295  MEOH      3050            0.0000000000
     47312      3742  MEOH      O1            -23.5280269388       -7.5892783600       20.7353483519  MEOH      3050            0.0000000000
     47313      3742  MEOH      DO1           -23.5343185572       -7.5922380582       20.7451661121  MEOH      3050            0.0000000000
     47314      3742  MEOH      HO1           -24.1022373542       -8.3676591504       20.6625078105  MEOH      3050            0.0000000000
     47315      3742  MEOH      HO2           -22.5824799857       -7.6983591816       20.9222770383  MEOH      3050            0.0000000000
     47316      3742  MEOH      H1A           -22.9765877801       -5.9521371660       19.5601696186  MEOH      3050            0.0000000000
     47317      3742  MEOH      H1B           -24.6420545975       -6.5742717714       19.2780603424  MEOH      3050            0.0000000000
     47318      3742  MEOH      H1C           -23.2016823586       -7.4956528311       18.6634882700  MEOH      3050            0.0000000000
     47319      3742  MEOH      LP1A          -23.2658878389       -7.8209956108       20.7258505630  MEOH      3050            0.0000000000
     47320      3742  MEOH      LP1B          -23.7717567421       -7.4693601063       20.9560639956  MEOH      3050            0.0000000000
     47321      3743  MEOH      C1             -2.4658253297        0.0951261256       22.8461082795  MEOH      3051            0.0000000000
     47322      3743  MEOH      DC1            -2.4667222014        0.0883972542       22.8551571827  MEOH      3051            0.0000000000
     47323      3743  MEOH      O1             -3.5634424749       -0.3626096271       23.6296915381  MEOH      3051            0.0000000000
     47324      3743  MEOH      DO1            -3.5669008065       -0.3631642349       23.6442625482  MEOH      3051            0.0000000000
     47325      3743  MEOH      HO1            -4.3464237651        0.0577229930       23.2408975191  MEOH      3051            0.0000000000
     47326      3743  MEOH      HO2            -3.4893929942       -1.3297355155       23.6205160098  MEOH      3051            0.0000000000
     47327      3743  MEOH      H1A            -1.5063490400       -0.2926429478       23.2502881870  MEOH      3051            0.0000000000
     47328      3743  MEOH      H1B            -2.4352187087        1.2056928960       22.8410403519  MEOH      3051            0.0000000000
     47329      3743  MEOH      H1C            -2.5870607516       -0.2784984622       21.8068644969  MEOH      3051            0.0000000000
     47330      3743  MEOH      LP1A           -3.6894491379       -0.6607765372       23.4965795002  MEOH      3051            0.0000000000
     47331      3743  MEOH      LP1B           -3.6147547133       -0.1475492066       23.9010143527  MEOH      3051            0.0000000000
     47332      3744  MEOH      C1             18.6144285742       -2.7254123092       29.2023969974  MEOH      3052            0.0000000000
     47333      3744  MEOH      DC1            18.6021435106       -2.7299572620       29.1957303714  MEOH      3052            0.0000000000
     47334      3744  MEOH      O1             18.2120100635       -1.8243778555       30.2393805525  MEOH      3052            0.0000000000
     47335      3744  MEOH      DO1            18.1977798857       -1.8298878166       30.2381175049  MEOH      3052            0.0000000000
     47336      3744  MEOH      HO1            17.6317979132       -1.1474545960       29.8572434547  MEOH      3052            0.0000000000
     47337      3744  MEOH      HO2            17.9448464184       -2.3704562274       30.9952390044  MEOH      3052            0.0000000000
     47338      3744  MEOH      H1A            19.4074027376       -3.4006221139       29.5891846619  MEOH      3052            0.0000000000
     47339      3744  MEOH      H1B            19.0300987601       -2.1567394146       28.3432401806  MEOH      3052            0.0000000000
     47340      3744  MEOH      H1C            17.7546708739       -3.3466603251       28.8719600147  MEOH      3052            0.0000000000
     47341      3744  MEOH      LP1A           17.9197072291       -1.9410086723       30.3925350678  MEOH      3052            0.0000000000
     47342      3744  MEOH      LP1B           18.4431641566       -1.5630539987       30.2672665184  MEOH      3052            0.0000000000
     47343      3745  MEOH      C1              5.5280196185        1.1012890546      -23.1342968138  MEOH      3053            0.0000000000
     47344      3745  MEOH      DC1             5.5218538052        1.1231513451      -23.1550206423  MEOH      3053            0.0000000000
     47345      3745  MEOH      O1              6.5216230052        1.1813037041      -22.1097976351  MEOH      3053            0.0000000000
     47346      3745  MEOH      DO1             6.5154406762        1.1924163035      -22.1123662721  MEOH      3053            0.0000000000
     47347      3745  MEOH      HO1             7.2381876450        1.7666716285      -22.4009668494  MEOH      3053            0.0000000000
     47348      3745  MEOH      HO2             6.0657984970        1.2645941248      -21.2576317337  MEOH      3053            0.0000000000
     47349      3745  MEOH      H1A             4.8359312475        0.2613063121      -22.9112190686  MEOH      3053            0.0000000000
     47350      3745  MEOH      H1B             5.9823062115        0.9048488484      -24.1289605446  MEOH      3053            0.0000000000
     47351      3745  MEOH      H1C             4.9638625362        2.0577739663      -23.1687119269  MEOH      3053            0.0000000000
     47352      3745  MEOH      LP1A            6.4450921857        1.4417770482      -21.8888979504  MEOH      3053            0.0000000000
     47353      3745  MEOH      LP1B            6.7583914937        0.9271135379      -22.1525532453  MEOH      3053            0.0000000000
     47354      3746  MEOH      C1              1.6866750385       14.2657915903      -30.7321195365  MEOH      3054            0.0000000000
     47355      3746  MEOH      DC1             1.6950336253       14.2984944732      -30.7193302523  MEOH      3054            0.0000000000
     47356      3746  MEOH      O1              1.0249486595       13.0802423234      -31.1614442990  MEOH      3054            0.0000000000
     47357      3746  MEOH      DO1             1.0121038272       13.1144300787      -31.1441357842  MEOH      3054            0.0000000000
     47358      3746  MEOH      HO1             1.3869001943       12.2964039324      -30.7193035249  MEOH      3054            0.0000000000
     47359      3746  MEOH      HO2             0.0872185429       13.2788467896      -31.3101671764  MEOH      3054            0.0000000000
     47360      3746  MEOH      H1A             1.7833620110       14.9441337910      -31.6066619816  MEOH      3054            0.0000000000
     47361      3746  MEOH      H1B             2.7075098014       14.0276150645      -30.3640307826  MEOH      3054            0.0000000000
     47362      3746  MEOH      H1C             1.0972804891       14.7613483323      -29.9312708735  MEOH      3054            0.0000000000
     47363      3746  MEOH      LP1A            0.7461736609       13.0187340999      -30.9589566732  MEOH      3054            0.0000000000
     47364      3746  MEOH      LP1B            1.1858011242       12.9486647695      -31.4430714140  MEOH      3054            0.0000000000
     47365      3747  MEOH      C1            -17.6602776444      -31.9188728698      -14.7718229992  MEOH      3055            0.0000000000
     47366      3747  MEOH      DC1           -17.6361075254      -31.9102941726      -14.7719137304  MEOH      3055            0.0000000000
     47367      3747  MEOH      O1            -16.6570929933      -31.1330034268      -15.4010380675  MEOH      3055            0.0000000000
     47368      3747  MEOH      DO1           -16.6445778766      -31.1209985308      -15.4047001411  MEOH      3055            0.0000000000
     47369      3747  MEOH      HO1           -16.4954746544      -30.3860689560      -14.8036534268  MEOH      3055            0.0000000000
     47370      3747  MEOH      HO2           -15.9465426006      -31.7554067947      -15.6215651351  MEOH      3055            0.0000000000
     47371      3747  MEOH      H1A           -17.9691251234      -32.7568292351      -15.4327037487  MEOH      3055            0.0000000000
     47372      3747  MEOH      H1B           -18.5587990399      -31.2958666818      -14.5747352230  MEOH      3055            0.0000000000
     47373      3747  MEOH      H1C           -17.2826455980      -32.3437015340      -13.8172363636  MEOH      3055            0.0000000000
     47374      3747  MEOH      LP1A          -16.3396646807      -31.2442057608      -15.3042222257  MEOH      3055            0.0000000000
     47375      3747  MEOH      LP1B          -16.8052366902      -30.8968141981      -15.6126227865  MEOH      3055            0.0000000000
     47376      3748  MEOH      C1            -11.5379591121       13.4230499248       -8.9326647237  MEOH      3056            0.0000000000
     47377      3748  MEOH      DC1           -11.5663498693       13.4198633398       -8.9304053726  MEOH      3056            0.0000000000
     47378      3748  MEOH      O1            -12.8654058224       13.0166952196       -8.5887185040  MEOH      3056            0.0000000000
     47379      3748  MEOH      DO1           -12.8926840745       13.0098317096       -8.5912058991  MEOH      3056            0.0000000000
     47380      3748  MEOH      HO1           -13.4049766273       13.8226346754       -8.6037165487  MEOH      3056            0.0000000000
     47381      3748  MEOH      HO2           -13.0678698959       12.2566987310       -9.1564452306  MEOH      3056            0.0000000000
     47382      3748  MEOH      H1A           -10.8450246075       12.5616015236       -8.8228037884  MEOH      3056            0.0000000000
     47383      3748  MEOH      H1B           -11.2038459974       14.2444581016       -8.2633531120  MEOH      3056            0.0000000000
     47384      3748  MEOH      H1C           -11.4895712883       13.7801928478       -9.9835826809  MEOH      3056            0.0000000000
     47385      3748  MEOH      LP1A          -13.0415894478       12.9265673323       -8.8773987666  MEOH      3056            0.0000000000
     47386      3748  MEOH      LP1B          -12.9078526888       13.0279371436       -8.2414838820  MEOH      3056            0.0000000000
     47387      3749  MEOH      C1            -20.8678221052       14.8126206227      -14.3472594349  MEOH      3057            0.0000000000
     47388      3749  MEOH      DC1           -20.8541429521       14.8151496905      -14.3385230790  MEOH      3057            0.0000000000
     47389      3749  MEOH      O1            -20.1654250139       13.6152722940      -14.6346232912  MEOH      3057            0.0000000000
     47390      3749  MEOH      DO1           -20.1539180507       13.6178977584      -14.6284052744  MEOH      3057            0.0000000000
     47391      3749  MEOH      HO1           -20.7347397755       13.1129238850      -15.2383010026  MEOH      3057            0.0000000000
     47392      3749  MEOH      HO2           -19.2782481227       13.8929111259      -14.9116320324  MEOH      3057            0.0000000000
     47393      3749  MEOH      H1A           -20.3468044941       15.3424521810      -13.5213416605  MEOH      3057            0.0000000000
     47394      3749  MEOH      H1B           -21.9035295129       14.5700793761      -14.0266273876  MEOH      3057            0.0000000000
     47395      3749  MEOH      H1C           -20.9236280470       15.4568763118      -15.2506648278  MEOH      3057            0.0000000000
     47396      3749  MEOH      LP1A          -19.9580161822       13.6619454424      -14.9126578102  MEOH      3057            0.0000000000
     47397      3749  MEOH      LP1B          -20.2455918581       13.3698128316      -14.3983545260  MEOH      3057            0.0000000000
     47398      3750  MEOH      C1            -33.3042292216      -20.7878978870      -33.9598374566  MEOH      3058            0.0000000000
     47399      3750  MEOH      DC1           -33.3044959679      -20.7877711868      -33.9511466440  MEOH      3058            0.0000000000
     47400      3750  MEOH      O1            -32.9977532643      -20.8486359201      -32.5707045270  MEOH      3058            0.0000000000
     47401      3750  MEOH      DO1           -32.9913465961      -20.8509085027      -32.5646844684  MEOH      3058            0.0000000000
     47402      3750  MEOH      HO1           -32.8422268177      -19.9337282853      -32.2884713870  MEOH      3058            0.0000000000
     47403      3750  MEOH      HO2           -33.7112541768      -21.3680756621      -32.1682137789  MEOH      3058            0.0000000000
     47404      3750  MEOH      H1A           -33.4384192271      -21.8159561546      -34.3590995772  MEOH      3058            0.0000000000
     47405      3750  MEOH      H1B           -32.5094634535      -20.2848741801      -34.5511373181  MEOH      3058            0.0000000000
     47406      3750  MEOH      H1C           -34.2412969290      -20.2033666795      -34.0804541228  MEOH      3058            0.0000000000
     47407      3750  MEOH      LP1A          -33.2918740015      -20.8273370053      -32.3821856999  MEOH      3058            0.0000000000
     47408      3750  MEOH      LP1B          -32.6533001413      -20.8915623323      -32.5258785395  MEOH      3058            0.0000000000
     47409      3751  MEOH      C1             22.2696547836       15.6487974522        0.1451740149  MEOH      3059            0.0000000000
     47410      3751  MEOH      DC1            22.2825085312       15.6380444395        0.1456071573  MEOH      3059            0.0000000000
     47411      3751  MEOH      O1             23.1257718959       15.0002293828       -0.7967922848  MEOH      3059            0.0000000000
     47412      3751  MEOH      DO1            23.1305687776       14.9943432493       -0.7987964087  MEOH      3059            0.0000000000
     47413      3751  MEOH      HO1            24.0218822439       15.3418058463       -0.6511496958  MEOH      3059            0.0000000000
     47414      3751  MEOH      HO2            22.9399981800       14.0514812149       -0.7176402711  MEOH      3059            0.0000000000
     47415      3751  MEOH      H1A            21.2112869527       15.3765739924       -0.0550082102  MEOH      3059            0.0000000000
     47416      3751  MEOH      H1B            22.3739968572       16.7508187298        0.0503961940  MEOH      3059            0.0000000000
     47417      3751  MEOH      H1C            22.5307581826       15.3493439083        1.1827064672  MEOH      3059            0.0000000000
     47418      3751  MEOH      LP1A           23.2494667323       14.7023762241       -0.6608397808  MEOH      3059            0.0000000000
     47419      3751  MEOH      LP1B           23.1365750098       15.1835526294       -1.0947450998  MEOH      3059            0.0000000000
     47420      3752  MEOH      C1            -28.4952451388      -23.0329693119      -31.3548081287  MEOH      3060            0.0000000000
     47421      3752  MEOH      DC1           -28.4943360952      -23.0287244192      -31.3512208109  MEOH      3060            0.0000000000
     47422      3752  MEOH      O1            -27.8405455544      -21.7669488307      -31.2881551200  MEOH      3060            0.0000000000
     47423      3752  MEOH      DO1           -27.8419698545      -21.7670120404      -31.2818525466  MEOH      3060            0.0000000000
     47424      3752  MEOH      HO1           -28.5231543286      -21.0867335716      -31.1774642775  MEOH      3060            0.0000000000
     47425      3752  MEOH      HO2           -27.1230795967      -21.8668534846      -30.6430491906  MEOH      3060            0.0000000000
     47426      3752  MEOH      H1A           -27.7617163598      -23.8292985425      -31.6040395212  MEOH      3060            0.0000000000
     47427      3752  MEOH      H1B           -29.2994963846      -23.0414453468      -32.1212473578  MEOH      3060            0.0000000000
     47428      3752  MEOH      H1C           -28.9665427161      -23.2531993106      -30.3731267436  MEOH      3060            0.0000000000
     47429      3752  MEOH      LP1A          -27.7568874349      -21.6927586713      -30.9564969537  MEOH      3060            0.0000000000
     47430      3752  MEOH      LP1B          -27.8041831301      -21.6339039340      -31.6098332660  MEOH      3060            0.0000000000
     47431      3753  MEOH      C1             18.1811960861      -35.7625265509       -3.5555819968  MEOH      3061            0.0000000000
     47432      3753  MEOH      DC1            18.1899293322      -35.7656545009       -3.5595564954  MEOH      3061            0.0000000000
     47433      3753  MEOH      O1             18.2631326352      -37.0128235017       -2.8870855690  MEOH      3061            0.0000000000
     47434      3753  MEOH      DO1            18.2651231377      -37.0179460720       -2.8974675402  MEOH      3061            0.0000000000
     47435      3753  MEOH      HO1            17.3622850767      -37.3512371968       -2.7652256197  MEOH      3061            0.0000000000
     47436      3753  MEOH      HO2            18.9487246635      -37.5262362457       -3.3423557370  MEOH      3061            0.0000000000
     47437      3753  MEOH      H1A            19.1833231447      -35.2829082058       -3.5502339633  MEOH      3061            0.0000000000
     47438      3753  MEOH      H1B            17.4733778142      -35.1061732822       -3.0055686493  MEOH      3061            0.0000000000
     47439      3753  MEOH      H1C            17.8377893868      -35.9043716754       -4.6026124644  MEOH      3061            0.0000000000
     47440      3753  MEOH      LP1A           18.2943246359      -37.2716250982       -3.1206423988  MEOH      3061            0.0000000000
     47441      3753  MEOH      LP1B           18.2571962058      -36.9639113987       -2.5405709734  MEOH      3061            0.0000000000
     47442      3754  MEOH      C1            -28.0326807408      -27.1102499399       -5.8667463023  MEOH      3062            0.0000000000
     47443      3754  MEOH      DC1           -28.0428182113      -27.1093939930       -5.8627806679  MEOH      3062            0.0000000000
     47444      3754  MEOH      O1            -27.0275704844      -27.8906534436       -5.2317896422  MEOH      3062            0.0000000000
     47445      3754  MEOH      DO1           -27.0361819059      -27.8952856978       -5.2273461182  MEOH      3062            0.0000000000
     47446      3754  MEOH      HO1           -26.5459679624      -28.3647851256       -5.9276043876  MEOH      3062            0.0000000000
     47447      3754  MEOH      HO2           -26.5447297195      -27.2756381282       -4.6577504819  MEOH      3062            0.0000000000
     47448      3754  MEOH      H1A           -28.5746178724      -26.5478303015       -5.0766138477  MEOH      3062            0.0000000000
     47449      3754  MEOH      H1B           -28.7429583750      -27.7652403192       -6.4152116937  MEOH      3062            0.0000000000
     47450      3754  MEOH      H1C           -27.5694393053      -26.3879234110       -6.5724181520  MEOH      3062            0.0000000000
     47451      3754  MEOH      LP1A          -26.7338323790      -27.7032984374       -5.1983826509  MEOH      3062            0.0000000000
     47452      3754  MEOH      LP1B          -27.1555307807      -28.2054816257       -5.1480676121  MEOH      3062            0.0000000000
     47453      3755  MEOH      C1            -20.9692907423      -19.9769309545       21.3915201157  MEOH      3063            0.0000000000
     47454      3755  MEOH      DC1           -20.9702934460      -19.9652659143       21.4002521875  MEOH      3063            0.0000000000
     47455      3755  MEOH      O1            -22.1308334031      -20.2606307115       22.1626363759  MEOH      3063            0.0000000000
     47456      3755  MEOH      DO1           -22.1330847869      -20.2414342433       22.1662050184  MEOH      3063            0.0000000000
     47457      3755  MEOH      HO1           -22.8918413505      -20.1808044853       21.5664864975  MEOH      3063            0.0000000000
     47458      3755  MEOH      HO2           -21.9551906607      -21.1151106613       22.5867986598  MEOH      3063            0.0000000000
     47459      3755  MEOH      H1A           -20.0573566474      -20.0094315134       22.0252715813  MEOH      3063            0.0000000000
     47460      3755  MEOH      H1B           -21.0604610210      -18.9741699470       20.9219678351  MEOH      3063            0.0000000000
     47461      3755  MEOH      H1C           -20.8548916733      -20.7629818389       20.6147589807  MEOH      3063            0.0000000000
     47462      3755  MEOH      LP1A          -22.1984884544      -20.6039509218       22.1552860526  MEOH      3063            0.0000000000
     47463      3755  MEOH      LP1B          -22.2520709493      -19.9667331344       22.3090114814  MEOH      3063            0.0000000000
     47464      3756  MEOH      C1             27.3572684268       25.3885235458        9.7843753820  MEOH      3064            0.0000000000
     47465      3756  MEOH      DC1            27.3716313711       25.3879990920        9.7803860822  MEOH      3064            0.0000000000
     47466      3756  MEOH      O1             26.7084391278       24.1566569093        9.4663555681  MEOH      3064            0.0000000000
     47467      3756  MEOH      DO1            26.7231804188       24.1541091910        9.4613546286  MEOH      3064            0.0000000000
     47468      3756  MEOH      HO1            26.8033896031       23.9936522752        8.5148757225  MEOH      3064            0.0000000000
     47469      3756  MEOH      HO2            27.0039863313       23.5099819425       10.1261762548  MEOH      3064            0.0000000000
     47470      3756  MEOH      H1A            27.0890728474       25.6812859109       10.8220084237  MEOH      3064            0.0000000000
     47471      3756  MEOH      H1B            27.0216558275       26.1925562428        9.0950158203  MEOH      3064            0.0000000000
     47472      3756  MEOH      H1C            28.4587752838       25.2621500418        9.7134290440  MEOH      3064            0.0000000000
     47473      3756  MEOH      LP1A           26.9331597093       23.8905725695        9.5009934715  MEOH      3064            0.0000000000
     47474      3756  MEOH      LP1B           26.3720086866       24.2149355208        9.3894259790  MEOH      3064            0.0000000000
     47475      3757  MEOH      C1             -8.6212431247        2.0994958693      -25.2035205152  MEOH      3065            0.0000000000
     47476      3757  MEOH      DC1            -8.6195963249        2.0995827718      -25.1950347963  MEOH      3065            0.0000000000
     47477      3757  MEOH      O1             -7.3238920525        1.9321402493      -24.6427185084  MEOH      3065            0.0000000000
     47478      3757  MEOH      DO1            -7.3227118433        1.9272393645      -24.6399694221  MEOH      3065            0.0000000000
     47479      3757  MEOH      HO1            -7.2471226841        2.5241152957      -23.8781454183  MEOH      3065            0.0000000000
     47480      3757  MEOH      HO2            -7.1902870463        0.9756995301      -24.5517742782  MEOH      3065            0.0000000000
     47481      3757  MEOH      H1A            -8.6853039531        1.5003238319      -26.1369068660  MEOH      3065            0.0000000000
     47482      3757  MEOH      H1B            -8.7942612303        3.1720662274      -25.4358533868  MEOH      3065            0.0000000000
     47483      3757  MEOH      H1C            -9.4039815808        1.7400670065      -24.5017709856  MEOH      3065            0.0000000000
     47484      3757  MEOH      LP1A           -7.3288102106        1.6763502150      -24.4038728049  MEOH      3065            0.0000000000
     47485      3757  MEOH      LP1B           -7.0982694561        2.1519650717      -24.7952684723  MEOH      3065            0.0000000000
     47486      3758  MEOH      C1            -36.0981461537      -21.2857798417      -14.4328250811  MEOH      3066            0.0000000000
     47487      3758  MEOH      DC1           -36.0987006164      -21.2799589186      -14.4244347393  MEOH      3066            0.0000000000
     47488      3758  MEOH      O1            -36.9693192473      -22.1819027707      -13.7357288527  MEOH      3066            0.0000000000
     47489      3758  MEOH      DO1           -36.9641021428      -22.1781210468      -13.7230180438  MEOH      3066            0.0000000000
     47490      3758  MEOH      HO1           -36.6918742872      -23.0895356542      -13.9360457135  MEOH      3066            0.0000000000
     47491      3758  MEOH      HO2           -37.0320029143      -21.8561651097      -12.8242104854  MEOH      3066            0.0000000000
     47492      3758  MEOH      H1A           -36.5273124241      -20.2611527699      -14.4161914835  MEOH      3066            0.0000000000
     47493      3758  MEOH      H1B           -35.9820640026      -21.6026980558      -15.4913187182  MEOH      3066            0.0000000000
     47494      3758  MEOH      H1C           -35.0945832469      -21.2741630129      -13.9563300208  MEOH      3066            0.0000000000
     47495      3758  MEOH      LP1A          -36.8425981671      -22.2476783381      -13.4161739396  MEOH      3066            0.0000000000
     47496      3758  MEOH      LP1B          -37.2475303556      -22.2570985725      -13.9343344183  MEOH      3066            0.0000000000
     47497      3759  MEOH      C1            -22.5204788148       11.0633028885       -6.6889873937  MEOH      3067            0.0000000000
     47498      3759  MEOH      DC1           -22.5251796787       11.0607448695       -6.6857918930  MEOH      3067            0.0000000000
     47499      3759  MEOH      O1            -21.2683377567       10.6348005814       -6.1580396293  MEOH      3067            0.0000000000
     47500      3759  MEOH      DO1           -21.2674496262       10.6296208574       -6.1561958174  MEOH      3067            0.0000000000
     47501      3759  MEOH      HO1           -20.8998998932       11.3979551602       -5.6860770995  MEOH      3067            0.0000000000
     47502      3759  MEOH      HO2           -21.4416167396        9.7949288400       -5.7047297433  MEOH      3067            0.0000000000
     47503      3759  MEOH      H1A           -22.9552452835       10.2596018988       -7.3209397949  MEOH      3067            0.0000000000
     47504      3759  MEOH      H1B           -22.3724883990       11.9805899317       -7.2980886309  MEOH      3067            0.0000000000
     47505      3759  MEOH      H1C           -23.2189906016       11.3094114367       -5.8608371250  MEOH      3067            0.0000000000
     47506      3759  MEOH      LP1A          -21.3143838406       10.4957722900       -5.8401545992  MEOH      3067            0.0000000000
     47507      3759  MEOH      LP1B          -21.0136812160       10.6914821780       -6.3913575302  MEOH      3067            0.0000000000
     47508      3760  MEOH      C1              9.9138826855      -33.5374855649      -20.7697616688  MEOH      3068            0.0000000000
     47509      3760  MEOH      DC1             9.9181202824      -33.5396690907      -20.7530380558  MEOH      3068            0.0000000000
     47510      3760  MEOH      O1             10.8902884955      -32.5027862683      -20.7009946483  MEOH      3068            0.0000000000
     47511      3760  MEOH      DO1            10.8874480273      -32.4969036598      -20.6848214903  MEOH      3068            0.0000000000
     47512      3760  MEOH      HO1            10.9943217708      -32.1558685466      -21.6008419531  MEOH      3068            0.0000000000
     47513      3760  MEOH      HO2            10.6263532216      -31.9208862451      -19.9711792362  MEOH      3068            0.0000000000
     47514      3760  MEOH      H1A             9.8500869038      -34.0555932372      -19.7890397207  MEOH      3068            0.0000000000
     47515      3760  MEOH      H1B            10.2051532443      -34.2698405825      -21.5527933351  MEOH      3068            0.0000000000
     47516      3760  MEOH      H1C             8.9241144651      -33.1040609598      -21.0282630835  MEOH      3068            0.0000000000
     47517      3760  MEOH      LP1A           10.7355076030      -32.1965189484      -20.6321237249  MEOH      3068            0.0000000000
     47518      3760  MEOH      LP1B           11.2102787809      -32.6369063026      -20.7470167477  MEOH      3068            0.0000000000
     47519      3761  MEOH      C1             27.8341420985      -35.8543287064      -18.1915495161  MEOH      3069            0.0000000000
     47520      3761  MEOH      DC1            27.8186872297      -35.8659762691      -18.1969359214  MEOH      3069            0.0000000000
     47521      3761  MEOH      O1             29.2152076790      -36.1680221495      -17.9815385744  MEOH      3069            0.0000000000
     47522      3761  MEOH      DO1            29.1995878250      -36.1884283053      -18.0032921685  MEOH      3069            0.0000000000
     47523      3761  MEOH      HO1            29.3625991744      -37.1221258167      -18.0756764485  MEOH      3069            0.0000000000
     47524      3761  MEOH      HO2            29.4327382591      -35.7690539911      -17.1245643291  MEOH      3069            0.0000000000
     47525      3761  MEOH      H1A            27.3095201458      -35.8133271647      -17.2130753569  MEOH      3069            0.0000000000
     47526      3761  MEOH      H1B            27.3550766682      -36.6199798509      -18.8385391913  MEOH      3069            0.0000000000
     47527      3761  MEOH      H1C            27.7554352882      -34.8677561775      -18.6963275700  MEOH      3069            0.0000000000
     47528      3761  MEOH      LP1A           29.3898662717      -36.1480419821      -18.2841855121  MEOH      3069            0.0000000000
     47529      3761  MEOH      LP1B           29.2737390701      -36.2293474668      -17.6419604807  MEOH      3069            0.0000000000
     47530      3762  MEOH      C1             22.2279764041        5.9133701504        1.5500934767  MEOH      3070            0.0000000000
     47531      3762  MEOH      DC1            22.2196516134        5.9102525186        1.5411590867  MEOH      3070            0.0000000000
     47532      3762  MEOH      O1             23.2280131127        5.9803941632        2.5690036450  MEOH      3070            0.0000000000
     47533      3762  MEOH      DO1            23.1977455440        5.9839319998        2.5746033778  MEOH      3070            0.0000000000
     47534      3762  MEOH      HO1            24.0080436818        5.4809209368        2.2809432206  MEOH      3070            0.0000000000
     47535      3762  MEOH      HO2            23.3219233692        6.9208855419        2.7870789309  MEOH      3070            0.0000000000
     47536      3762  MEOH      H1A            21.2884518351        6.3659941838        1.9331679716  MEOH      3070            0.0000000000
     47537      3762  MEOH      H1B            22.0293360796        4.8560165198        1.2728457127  MEOH      3070            0.0000000000
     47538      3762  MEOH      H1C            22.5559541427        6.4923678055        0.6604231340  MEOH      3070            0.0000000000
     47539      3762  MEOH      LP1A           23.4311579793        6.2610000793        2.5190788718  MEOH      3070            0.0000000000
     47540      3762  MEOH      LP1B           23.1853947707        5.7174563426        2.7960441248  MEOH      3070            0.0000000000
     47541      3763  MEOH      C1            -13.8120460389       -2.4430574932      -27.5382185983  MEOH      3071            0.0000000000
     47542      3763  MEOH      DC1           -13.8148190342       -2.4432975595      -27.5367569921  MEOH      3071            0.0000000000
     47543      3763  MEOH      O1            -15.0051758757       -3.1587492088      -27.2307216151  MEOH      3071            0.0000000000
     47544      3763  MEOH      DO1           -15.0064865813       -3.1648158940      -27.2270378164  MEOH      3071            0.0000000000
     47545      3763  MEOH      HO1           -15.6637997762       -2.9108527462      -27.8983007501  MEOH      3071            0.0000000000
     47546      3763  MEOH      HO2           -14.7352390960       -4.0848013655      -27.1284399507  MEOH      3071            0.0000000000
     47547      3763  MEOH      H1A           -13.0380698539       -2.6581941121      -26.7707564809  MEOH      3071            0.0000000000
     47548      3763  MEOH      H1B           -14.0125345881       -1.3504155361      -27.5543088317  MEOH      3071            0.0000000000
     47549      3763  MEOH      H1C           -13.4350128108       -2.7610220675      -28.5337413125  MEOH      3071            0.0000000000
     47550      3763  MEOH      LP1A          -15.0029221685       -3.4697837227      -27.3911973203  MEOH      3071            0.0000000000
     47551      3763  MEOH      LP1B          -15.2026838942       -2.9727922278      -27.0095642416  MEOH      3071            0.0000000000
     47552      3764  MEOH      C1            -23.8403550318       16.3797835384       28.0385887108  MEOH      3072            0.0000000000
     47553      3764  MEOH      DC1           -23.8363100716       16.3961614940       28.0405038434  MEOH      3072            0.0000000000
     47554      3764  MEOH      O1            -23.3647534704       17.1618489583       29.1327331390  MEOH      3072            0.0000000000
     47555      3764  MEOH      DO1           -23.3641043570       17.1634637460       29.1350979706  MEOH      3072            0.0000000000
     47556      3764  MEOH      HO1           -22.5168459369       17.5594035518       28.8799423959  MEOH      3072            0.0000000000
     47557      3764  MEOH      HO2           -24.1033146442       17.7372742488       29.3863334718  MEOH      3072            0.0000000000
     47558      3764  MEOH      H1A           -24.7780591203       15.8706586405       28.3481430367  MEOH      3072            0.0000000000
     47559      3764  MEOH      H1B           -23.0898268005       15.6075959811       27.7651755582  MEOH      3072            0.0000000000
     47560      3764  MEOH      H1C           -24.0608010848       17.0154816497       27.1545002255  MEOH      3072            0.0000000000
     47561      3764  MEOH      LP1A          -23.4879842779       17.4885650757       29.1088428329  MEOH      3072            0.0000000000
     47562      3764  MEOH      LP1B          -23.1710043254       16.9635254457       29.3463427202  MEOH      3072            0.0000000000
     47563      3765  MEOH      C1             17.3386115123      -35.8176580073       23.4978970724  MEOH      3073            0.0000000000
     47564      3765  MEOH      DC1            17.3323748443      -35.8230915010       23.5003832849  MEOH      3073            0.0000000000
     47565      3765  MEOH      O1             17.9290823088      -35.3864605806       24.7139991049  MEOH      3073            0.0000000000
     47566      3765  MEOH      DO1            17.9373538924      -35.3864208211       24.7041404311  MEOH      3073            0.0000000000
     47567      3765  MEOH      HO1            18.0723257936      -34.4290546942       24.6527188236  MEOH      3073            0.0000000000
     47568      3765  MEOH      HO2            17.3743769591      -35.7542696026       25.4196325082  MEOH      3073            0.0000000000
     47569      3765  MEOH      H1A            17.2900273768      -36.9273327538       23.4737612305  MEOH      3073            0.0000000000
     47570      3765  MEOH      H1B            17.9583651686      -35.4444861988       22.6547071718  MEOH      3073            0.0000000000
     47571      3765  MEOH      H1C            16.3163464050      -35.3956512957       23.3920415746  MEOH      3073            0.0000000000
     47572      3765  MEOH      LP1A           17.6798354784      -35.3026562261       24.9449814585  MEOH      3073            0.0000000000
     47573      3765  MEOH      LP1B           18.2777161430      -35.4082924119       24.6921399925  MEOH      3073            0.0000000000
     47574      3766  MEOH      C1             32.6605582786        0.9447038957       14.3186325572  MEOH      3074            0.0000000000
     47575      3766  MEOH      DC1            32.6635537138        0.9448454157       14.3130886761  MEOH      3074            0.0000000000
     47576      3766  MEOH      O1             32.6915862335        0.5735928097       12.9407317503  MEOH      3074            0.0000000000
     47577      3766  MEOH      DO1            32.6921305586        0.5732169485       12.9369849502  MEOH      3074            0.0000000000
     47578      3766  MEOH      HO1            32.8529062586        1.3823687069       12.4300876485  MEOH      3074            0.0000000000
     47579      3766  MEOH      HO2            33.3088904720       -0.1721901151       12.8803719450  MEOH      3074            0.0000000000
     47580      3766  MEOH      H1A            32.3769786812        0.0677773878       14.9390384842  MEOH      3074            0.0000000000
     47581      3766  MEOH      H1B            31.9160240069        1.7537038575       14.4783472452  MEOH      3074            0.0000000000
     47582      3766  MEOH      H1C            33.6658670780        1.2959415940       14.6353458300  MEOH      3074            0.0000000000
     47583      3766  MEOH      LP1A           33.0173542282        0.4856827705       12.8477422958  MEOH      3074            0.0000000000
     47584      3766  MEOH      LP1B           32.3691015937        0.5883152961       12.8055026650  MEOH      3074            0.0000000000
     47585      3767  MEOH      C1              7.0292999792      -25.2909690797      -29.2912291396  MEOH      3075            0.0000000000
     47586      3767  MEOH      DC1             7.0159772937      -25.3034356272      -29.3118518566  MEOH      3075            0.0000000000
     47587      3767  MEOH      O1              5.6879554310      -24.9553882392      -29.6060793813  MEOH      3075            0.0000000000
     47588      3767  MEOH      DO1             5.6834411873      -24.9590569360      -29.6203567763  MEOH      3075            0.0000000000
     47589      3767  MEOH      HO1             5.1423390560      -25.4383041433      -28.9657708600  MEOH      3075            0.0000000000
     47590      3767  MEOH      HO2             5.6680560236      -23.9856461078      -29.5958709466  MEOH      3075            0.0000000000
     47591      3767  MEOH      H1A             7.7477778780      -24.6510572758      -29.8467679699  MEOH      3075            0.0000000000
     47592      3767  MEOH      H1B             7.2545688726      -26.3641032985      -29.4699967971  MEOH      3075            0.0000000000
     47593      3767  MEOH      H1C             7.1216867719      -25.0927288564      -28.2019695310  MEOH      3075            0.0000000000
     47594      3767  MEOH      LP1A            5.5921576579      -24.6679903526      -29.4307932112  MEOH      3075            0.0000000000
     47595      3767  MEOH      LP1B            5.5609794979      -25.1794435976      -29.8430948003  MEOH      3075            0.0000000000
     47596      3768  MEOH      C1            -25.2781120095        0.9658344061      -24.3645369000  MEOH      3076            0.0000000000
     47597      3768  MEOH      DC1           -25.2658031226        0.9876112704      -24.3667259733  MEOH      3076            0.0000000000
     47598      3768  MEOH      O1            -26.4521042523        0.6325715346      -25.1071519246  MEOH      3076            0.0000000000
     47599      3768  MEOH      DO1           -26.4477833680        0.6479474594      -25.1167985588  MEOH      3076            0.0000000000
     47600      3768  MEOH      HO1           -26.2379852554        0.7184617571      -26.0493174753  MEOH      3076            0.0000000000
     47601      3768  MEOH      HO2           -26.7245185184       -0.2325585253      -24.7632908369  MEOH      3076            0.0000000000
     47602      3768  MEOH      H1A           -25.4816285587        0.8448969957      -23.2790526031  MEOH      3076            0.0000000000
     47603      3768  MEOH      H1B           -24.9749205129        2.0124708744      -24.5812118179  MEOH      3076            0.0000000000
     47604      3768  MEOH      H1C           -24.4576085249        0.2702736081      -24.6425480654  MEOH      3076            0.0000000000
     47605      3768  MEOH      LP1A          -26.4592409923        0.2886712232      -25.1718175476  MEOH      3076            0.0000000000
     47606      3768  MEOH      LP1B          -26.6473745033        0.9187024864      -25.1571379972  MEOH      3076            0.0000000000
     47607      3769  MEOH      C1            -27.0531832551       15.0108879964       -1.0245754872  MEOH      3077            0.0000000000
     47608      3769  MEOH      DC1           -27.0296510497       15.0144690502       -1.0253224696  MEOH      3077            0.0000000000
     47609      3769  MEOH      O1            -26.2154676276       16.1527947187       -0.8689569401  MEOH      3077            0.0000000000
     47610      3769  MEOH      DO1           -26.1962839618       16.1726118044       -0.8644471658  MEOH      3077            0.0000000000
     47611      3769  MEOH      HO1           -26.1213319906       16.2693734269        0.0893999280  MEOH      3077            0.0000000000
     47612      3769  MEOH      HO2           -25.4553273808       16.0149678393       -1.4555492664  MEOH      3077            0.0000000000
     47613      3769  MEOH      H1A           -27.3232046755       14.8569969988       -2.0912183489  MEOH      3077            0.0000000000
     47614      3769  MEOH      H1B           -27.9879702411       15.1641678409       -0.4440588375  MEOH      3077            0.0000000000
     47615      3769  MEOH      H1C           -26.5204638172       14.1046895471       -0.6649432153  MEOH      3077            0.0000000000
     47616      3769  MEOH      LP1A          -25.8794516888       16.0549743046       -0.8640116969  MEOH      3077            0.0000000000
     47617      3769  MEOH      LP1B          -26.4100421341       16.4435606804       -0.8591632193  MEOH      3077            0.0000000000
     47618      3770  MEOH      C1              5.1059966927      -31.2771385399        1.2318000871  MEOH      3078            0.0000000000
     47619      3770  MEOH      DC1             5.1034188982      -31.2791182065        1.2494797675  MEOH      3078            0.0000000000
     47620      3770  MEOH      O1              4.0573954184      -31.7354385269        2.0730003163  MEOH      3078            0.0000000000
     47621      3770  MEOH      DO1             4.0516822763      -31.7224847674        2.0836311150  MEOH      3078            0.0000000000
     47622      3770  MEOH      HO1             4.4578231849      -32.1985205398        2.8254048970  MEOH      3078            0.0000000000
     47623      3770  MEOH      HO2             3.4547180651      -30.9818729932        2.1720911637  MEOH      3078            0.0000000000
     47624      3770  MEOH      H1A             4.6473948529      -30.9644234112        0.2693996491  MEOH      3078            0.0000000000
     47625      3770  MEOH      H1B             5.8541453999      -32.0777718394        1.0485493481  MEOH      3078            0.0000000000
     47626      3770  MEOH      H1C             5.6146351740      -30.3797239151        1.6444196294  MEOH      3078            0.0000000000
     47627      3770  MEOH      LP1A            3.9763708696      -31.4892658563        2.3082321992  MEOH      3078            0.0000000000
     47628      3770  MEOH      LP1B            3.9539272744      -32.0543057456        1.9724118480  MEOH      3078            0.0000000000
     47629      3771  MEOH      C1            -24.7466015018       24.6192963424      -35.3413238604  MEOH      3079            0.0000000000
     47630      3771  MEOH      DC1           -24.7454276998       24.6082471218      -35.3416910806  MEOH      3079            0.0000000000
     47631      3771  MEOH      O1            -25.6041058220       25.5258175794      -34.6457014365  MEOH      3079            0.0000000000
     47632      3771  MEOH      DO1           -25.5959585488       25.5276916847      -34.6504963973  MEOH      3079            0.0000000000
     47633      3771  MEOH      HO1           -25.4039123268       25.4746447905      -33.6979652337  MEOH      3079            0.0000000000
     47634      3771  MEOH      HO2           -25.5539127765       26.3693700504      -35.1219365543  MEOH      3079            0.0000000000
     47635      3771  MEOH      H1A           -25.0765117839       24.5203886880      -36.3975896803  MEOH      3079            0.0000000000
     47636      3771  MEOH      H1B           -24.7906375882       23.6222237896      -34.8532376512  MEOH      3079            0.0000000000
     47637      3771  MEOH      H1C           -23.7015632073       24.9959397410      -35.3224634448  MEOH      3079            0.0000000000
     47638      3771  MEOH      LP1A          -25.4543877315       25.8416159215      -34.6268361119  MEOH      3079            0.0000000000
     47639      3771  MEOH      LP1B          -25.9023406601       25.3650222010      -34.5579470768  MEOH      3079            0.0000000000
     47640      3772  MEOH      C1            -16.8336981293        7.3330649820       -2.9614920322  MEOH      3080            0.0000000000
     47641      3772  MEOH      DC1           -16.8404292064        7.3274573602       -2.9529439313  MEOH      3080            0.0000000000
     47642      3772  MEOH      O1            -17.9226442935        6.4256006226       -3.0862223643  MEOH      3080            0.0000000000
     47643      3772  MEOH      DO1           -17.9217247129        6.4247547075       -3.0574703334  MEOH      3080            0.0000000000
     47644      3772  MEOH      HO1           -18.3309451499        6.5982529163       -3.9489978833  MEOH      3080            0.0000000000
     47645      3772  MEOH      HO2           -17.5376463093        5.5493445878       -2.9285774627  MEOH      3080            0.0000000000
     47646      3772  MEOH      H1A           -16.2619368658        7.1447190045       -2.0277169788  MEOH      3080            0.0000000000
     47647      3772  MEOH      H1B           -17.2093094626        8.3784949718       -2.9437927661  MEOH      3080            0.0000000000
     47648      3772  MEOH      H1C           -16.1363483027        7.2091651858       -3.8174552676  MEOH      3080            0.0000000000
     47649      3772  MEOH      LP1A          -17.8129932153        6.1261317356       -3.2304271727  MEOH      3080            0.0000000000
     47650      3772  MEOH      LP1B          -18.2130937277        6.5680666985       -2.9526463808  MEOH      3080            0.0000000000
     47651      3773  MEOH      C1            -22.0124574262      -27.5717632949       36.6045146393  MEOH      3081            0.0000000000
     47652      3773  MEOH      DC1           -22.0092365070      -27.5858632454       36.6117699331  MEOH      3081            0.0000000000
     47653      3773  MEOH      O1            -23.0904002914      -28.2607551803       35.9666107737  MEOH      3081            0.0000000000
     47654      3773  MEOH      DO1           -23.0905166803      -28.2652722116       35.9769259039  MEOH      3081            0.0000000000
     47655      3773  MEOH      HO1           -22.7757082725      -28.5931555515       35.1114038233  MEOH      3081            0.0000000000
     47656      3773  MEOH      HO2           -23.4667605365      -28.8591407268       36.6308303937  MEOH      3081            0.0000000000
     47657      3773  MEOH      H1A           -22.3978226423      -27.0182880275       37.4873961594  MEOH      3081            0.0000000000
     47658      3773  MEOH      H1B           -21.5566259871      -26.8402403138       35.9035062026  MEOH      3081            0.0000000000
     47659      3773  MEOH      H1C           -21.2382117371      -28.2943925351       36.9401805368  MEOH      3081            0.0000000000
     47660      3773  MEOH      LP1A          -23.0898441430      -28.5976940375       36.0613308728  MEOH      3081            0.0000000000
     47661      3773  MEOH      LP1B          -23.2782711331      -28.0368920680       35.7740235109  MEOH      3081            0.0000000000
     47662      3774  MEOH      C1             -1.7099317544      -11.4956673590       12.6091042329  MEOH      3082            0.0000000000
     47663      3774  MEOH      DC1            -1.7087062600      -11.4979197464       12.6126926321  MEOH      3082            0.0000000000
     47664      3774  MEOH      O1             -0.6971037082      -12.3982497085       12.1788514626  MEOH      3082            0.0000000000
     47665      3774  MEOH      DO1            -0.6984220043      -12.4036240153       12.1866759947  MEOH      3082            0.0000000000
     47666      3774  MEOH      HO1            -0.0155820083      -12.4428600694       12.8676461268  MEOH      3082            0.0000000000
     47667      3774  MEOH      HO2            -1.1653925804      -13.1894114320       11.8695479556  MEOH      3082            0.0000000000
     47668      3774  MEOH      H1A            -2.4461187007      -11.3369958488       11.7922975640  MEOH      3082            0.0000000000
     47669      3774  MEOH      H1B            -1.2567553281      -10.5166694133       12.8746511207  MEOH      3082            0.0000000000
     47670      3774  MEOH      H1C            -2.2437324067      -11.9126050056       13.4897522117  MEOH      3082            0.0000000000
     47671      3774  MEOH      LP1A           -0.7756295951      -12.7237304300       12.2808121658  MEOH      3082            0.0000000000
     47672      3774  MEOH      LP1B           -0.4539917626      -12.2264558247       11.9947769032  MEOH      3082            0.0000000000
     47673      3775  MEOH      C1            -12.6324086789        1.8320587249       -4.5410041980  MEOH      3083            0.0000000000
     47674      3775  MEOH      DC1           -12.6524174400        1.8280022840       -4.5408323076  MEOH      3083            0.0000000000
     47675      3775  MEOH      O1            -13.0737735271        0.5829399130       -5.0709140273  MEOH      3083            0.0000000000
     47676      3775  MEOH      DO1           -13.0859072338        0.5792209661       -5.0709246180  MEOH      3083            0.0000000000
     47677      3775  MEOH      HO1           -12.3481697208        0.2639015170       -5.6300326356  MEOH      3083            0.0000000000
     47678      3775  MEOH      HO2           -13.3689445770        0.0632079009       -4.3069423738  MEOH      3083            0.0000000000
     47679      3775  MEOH      H1A           -13.4402211327        2.2864853768       -3.9284224011  MEOH      3083            0.0000000000
     47680      3775  MEOH      H1B           -12.3648896843        2.5179692133       -5.3730386861  MEOH      3083            0.0000000000
     47681      3775  MEOH      H1C           -11.7368953762        1.6872364904       -3.8995968029  MEOH      3083            0.0000000000
     47682      3775  MEOH      LP1A          -12.9851174385        0.3228902021       -4.8540863405  MEOH      3083            0.0000000000
     47683      3775  MEOH      LP1B          -13.2464056141        0.6344947043       -5.3709811299  MEOH      3083            0.0000000000
     47684      3776  MEOH      C1              2.6470286195      -20.0454235133        6.9456568625  MEOH      3084            0.0000000000
     47685      3776  MEOH      DC1             2.6503343965      -20.0509676881        6.9470172400  MEOH      3084            0.0000000000
     47686      3776  MEOH      O1              2.1081556864      -21.3537468211        7.1258714600  MEOH      3084            0.0000000000
     47687      3776  MEOH      DO1             2.0995545136      -21.3562278422        7.1306126923  MEOH      3084            0.0000000000
     47688      3776  MEOH      HO1             2.7795775975      -21.9889192849        6.8315101851  MEOH      3084            0.0000000000
     47689      3776  MEOH      HO2             1.7329379972      -21.3811418397        8.0199414788  MEOH      3084            0.0000000000
     47690      3776  MEOH      H1A             1.8558303363      -19.2885459827        7.1339722426  MEOH      3084            0.0000000000
     47691      3776  MEOH      H1B             3.0105069675      -19.9200651502        5.9033086616  MEOH      3084            0.0000000000
     47692      3776  MEOH      H1C             3.4880013252      -19.8814016925        7.6528928561  MEOH      3084            0.0000000000
     47693      3776  MEOH      LP1A            2.1825851046      -21.4706413309        7.4472683101  MEOH      3084            0.0000000000
     47694      3776  MEOH      LP1B            1.9335782429      -21.4518889271        6.8388334081  MEOH      3084            0.0000000000
     47695      3777  MEOH      C1              5.9563461939       31.9001561098        7.7985472230  MEOH      3085            0.0000000000
     47696      3777  MEOH      DC1             5.9542323563       31.8975760735        7.7903628311  MEOH      3085            0.0000000000
     47697      3777  MEOH      O1              7.2114399870       31.4305589449        8.2987500014  MEOH      3085            0.0000000000
     47698      3777  MEOH      DO1             7.2128444287       31.4290099039        8.2877279684  MEOH      3085            0.0000000000
     47699      3777  MEOH      HO1             7.4671192417       32.0286172124        9.0183710323  MEOH      3085            0.0000000000
     47700      3777  MEOH      HO2             7.0834950930       30.4879198031        8.4883853157  MEOH      3085            0.0000000000
     47701      3777  MEOH      H1A             5.6366924967       31.2847239065        6.9305692757  MEOH      3085            0.0000000000
     47702      3777  MEOH      H1B             6.0489691254       32.9606440127        7.4805733222  MEOH      3085            0.0000000000
     47703      3777  MEOH      H1C             5.1802559032       31.8153918250        8.5890027101  MEOH      3085            0.0000000000
     47704      3777  MEOH      LP1A            7.1587240587       31.1950940490        8.5522797111  MEOH      3085            0.0000000000
     47705      3777  MEOH      LP1B            7.4741038314       31.5788969413        8.1212576250  MEOH      3085            0.0000000000
     47706      3778  MEOH      C1             -2.4150517881       12.9104608724       18.8424588555  MEOH      3086            0.0000000000
     47707      3778  MEOH      DC1            -2.4281422148       12.9142076269       18.8448641597  MEOH      3086            0.0000000000
     47708      3778  MEOH      O1             -1.0071617253       12.8083334521       19.0669675011  MEOH      3086            0.0000000000
     47709      3778  MEOH      DO1            -1.0222179907       12.8203500078       19.0689410290  MEOH      3086            0.0000000000
     47710      3778  MEOH      HO1            -0.7301184129       11.8904797370       18.9196869469  MEOH      3086            0.0000000000
     47711      3778  MEOH      HO2            -0.5997000238       13.5243852233       18.5549666977  MEOH      3086            0.0000000000
     47712      3778  MEOH      H1A            -2.7395727760       13.9543817731       19.0405403593  MEOH      3086            0.0000000000
     47713      3778  MEOH      H1B            -2.9635377574       12.2155843118       19.5137491854  MEOH      3086            0.0000000000
     47714      3778  MEOH      H1C            -2.6736647624       12.6559516709       17.7923800975  MEOH      3086            0.0000000000
     47715      3778  MEOH      LP1A           -0.8335854227       12.8729880935       18.7699977308  MEOH      3086            0.0000000000
     47716      3778  MEOH      LP1B           -0.9444953707       12.7377771129       19.4040056755  MEOH      3086            0.0000000000
     47717      3779  MEOH      C1             29.6606863023       21.7449892965      -20.3846823876  MEOH      3087            0.0000000000
     47718      3779  MEOH      DC1            29.6607413428       21.7411656542      -20.3780003707  MEOH      3087            0.0000000000
     47719      3779  MEOH      O1             31.0811995215       21.6575972018      -20.5200125646  MEOH      3087            0.0000000000
     47720      3779  MEOH      DO1            31.0823061387       21.6442015065      -20.5122284013  MEOH      3087            0.0000000000
     47721      3779  MEOH      HO1            31.3187948098       22.1019433610      -21.3488701940  MEOH      3087            0.0000000000
     47722      3779  MEOH      HO2            31.4444917675       21.9765238622      -19.6790580295  MEOH      3087            0.0000000000
     47723      3779  MEOH      H1A            29.3411869392       21.2226783830      -19.4576265817  MEOH      3087            0.0000000000
     47724      3779  MEOH      H1B            29.1595425389       21.2788600679      -21.2598392138  MEOH      3087            0.0000000000
     47725      3779  MEOH      H1C            29.3546122589       22.8109163104      -20.3180544492  MEOH      3087            0.0000000000
     47726      3779  MEOH      LP1A           31.2333557280       21.9317622193      -20.3645068346  MEOH      3087            0.0000000000
     47727      3779  MEOH      LP1B           31.1675267786       21.3630731782      -20.6882481261  MEOH      3087            0.0000000000
     47728      3780  MEOH      C1            -11.3131780404       33.3051610014       21.8466080334  MEOH      3088            0.0000000000
     47729      3780  MEOH      DC1           -11.3165107834       33.3095117840       21.8544847341  MEOH      3088            0.0000000000
     47730      3780  MEOH      O1            -12.5453153466       34.0021062347       22.0356525911  MEOH      3088            0.0000000000
     47731      3780  MEOH      DO1           -12.5464373060       33.9986646099       22.0277560886  MEOH      3088            0.0000000000
     47732      3780  MEOH      HO1           -12.4232955278       34.9303047478       21.7817654427  MEOH      3088            0.0000000000
     47733      3780  MEOH      HO2           -13.2404157295       33.4608559232       21.6297171792  MEOH      3088            0.0000000000
     47734      3780  MEOH      H1A           -11.3803585952       32.3064412537       22.3286522621  MEOH      3088            0.0000000000
     47735      3780  MEOH      H1B           -10.4704012085       33.8781787221       22.2889867229  MEOH      3088            0.0000000000
     47736      3780  MEOH      H1C           -11.1188044602       33.1530800272       20.7633669294  MEOH      3088            0.0000000000
     47737      3780  MEOH      LP1A          -12.7394694147       33.9829786136       21.7450698456  MEOH      3088            0.0000000000
     47738      3780  MEOH      LP1B          -12.5626308404       34.1283752643       22.3616223839  MEOH      3088            0.0000000000
     47739      3781  MEOH      C1             13.6360273647        5.4623775563       12.7962878842  MEOH      3089            0.0000000000
     47740      3781  MEOH      DC1            13.6314442790        5.4712009065       12.7973107347  MEOH      3089            0.0000000000
     47741      3781  MEOH      O1             13.1054903149        5.1241552985       14.0789898090  MEOH      3089            0.0000000000
     47742      3781  MEOH      DO1            13.0963482361        5.1381995071       14.0757991490  MEOH      3089            0.0000000000
     47743      3781  MEOH      HO1            13.0024565815        4.1596988934       14.0893770211  MEOH      3089            0.0000000000
     47744      3781  MEOH      HO2            13.6962669828        5.5459962788       14.7223661500  MEOH      3089            0.0000000000
     47745      3781  MEOH      H1A            13.7719926591        6.5622741292       12.7184292336  MEOH      3089            0.0000000000
     47746      3781  MEOH      H1B            12.9451030310        5.1146765176       11.9987613622  MEOH      3089            0.0000000000
     47747      3781  MEOH      H1C            14.6214340357        4.9732417258       12.6412368217  MEOH      3089            0.0000000000
     47748      3781  MEOH      LP1A           13.3663703673        5.0700190092       14.3059498505  MEOH      3089            0.0000000000
     47749      3781  MEOH      LP1B           12.7557128616        5.1327139151       14.0699077794  MEOH      3089            0.0000000000
     47750      3782  MEOH      C1             16.4476310971       16.0527669458       21.0991044473  MEOH      3090            0.0000000000
     47751      3782  MEOH      DC1            16.4436818146       16.0712245791       21.1002052817  MEOH      3090            0.0000000000
     47752      3782  MEOH      O1             15.1918628334       16.4495193772       20.5421855929  MEOH      3090            0.0000000000
     47753      3782  MEOH      DO1            15.1918005457       16.4592541911       20.5366758220  MEOH      3090            0.0000000000
     47754      3782  MEOH      HO1            14.5018410136       15.9824380616       21.0387789213  MEOH      3090            0.0000000000
     47755      3782  MEOH      HO2            15.2034946725       17.4183988892       20.4970503344  MEOH      3090            0.0000000000
     47756      3782  MEOH      H1A            17.2671575108       16.4765970524       20.4801815924  MEOH      3090            0.0000000000
     47757      3782  MEOH      H1B            16.5532819856       14.9468318230       21.1072527491  MEOH      3090            0.0000000000
     47758      3782  MEOH      H1C            16.5578194922       16.4521481364       22.1299653409  MEOH      3090            0.0000000000
     47759      3782  MEOH      LP1A           15.0738212038       16.7359432515       20.7050583589  MEOH      3090            0.0000000000
     47760      3782  MEOH      LP1B           15.1051040948       16.2362777159       20.2785553307  MEOH      3090            0.0000000000
     47761      3783  MEOH      C1            -31.4273122465       26.8579962615       12.5492684175  MEOH      3091            0.0000000000
     47762      3783  MEOH      DC1           -31.4227141873       26.8710715323       12.5520420473  MEOH      3091            0.0000000000
     47763      3783  MEOH      O1            -30.8027994722       26.8280586385       11.2690101947  MEOH      3091            0.0000000000
     47764      3783  MEOH      DO1           -30.7933292317       26.8511558924       11.2717341382  MEOH      3091            0.0000000000
     47765      3783  MEOH      HO1           -31.3825034640       26.3137383772       10.6856424285  MEOH      3091            0.0000000000
     47766      3783  MEOH      HO2           -30.5116975653       27.7280064975       11.0539438498  MEOH      3091            0.0000000000
     47767      3783  MEOH      H1A           -30.6955810369       27.2121779334       13.3065304465  MEOH      3091            0.0000000000
     47768      3783  MEOH      H1B           -31.7714005926       25.8399461395       12.8312225970  MEOH      3091            0.0000000000
     47769      3783  MEOH      H1C           -32.2976287056       27.5476965005       12.5148614017  MEOH      3091            0.0000000000
     47770      3783  MEOH      LP1A          -30.9053320749       27.1037538629       11.0793283331  MEOH      3091            0.0000000000
     47771      3783  MEOH      LP1B          -30.5866353247       26.5536192814       11.2476536830  MEOH      3091            0.0000000000
     47772      3784  MEOH      C1             31.3384194795       31.5849817309      -22.5921410815  MEOH      3092            0.0000000000
     47773      3784  MEOH      DC1            31.3323871541       31.6030761475      -22.5929850597  MEOH      3092            0.0000000000
     47774      3784  MEOH      O1             31.9449334895       32.3153280088      -23.6610615201  MEOH      3092            0.0000000000
     47775      3784  MEOH      DO1            31.9370120566       32.3349800173      -23.6612346522  MEOH      3092            0.0000000000
     47776      3784  MEOH      HO1            32.5256626601       32.9755227536      -23.2514317734  MEOH      3092            0.0000000000
     47777      3784  MEOH      HO2            32.3574767803       31.6368833924      -24.2182158411  MEOH      3092            0.0000000000
     47778      3784  MEOH      H1A            30.7422450762       30.7446304562      -23.0077211773  MEOH      3092            0.0000000000
     47779      3784  MEOH      H1B            30.6710459907       32.2495784865      -22.0028662893  MEOH      3092            0.0000000000
     47780      3784  MEOH      H1C            32.1208979711       31.1651060412      -21.9244938572  MEOH      3092            0.0000000000
     47781      3784  MEOH      LP1A           32.2415282357       32.1581836049      -23.7602441438  MEOH      3092            0.0000000000
     47782      3784  MEOH      LP1B           31.7441896547       32.5883761903      -23.7485063792  MEOH      3092            0.0000000000
     47783      3785  MEOH      C1             20.3257043092       10.5606814302       29.2180950035  MEOH      3093            0.0000000000
     47784      3785  MEOH      DC1            20.3249990450       10.5609497144       29.2191873356  MEOH      3093            0.0000000000
     47785      3785  MEOH      O1             19.2280702671       10.1486154054       28.4056297252  MEOH      3093            0.0000000000
     47786      3785  MEOH      DO1            19.2320371128       10.1476723074       28.4114467071  MEOH      3093            0.0000000000
     47787      3785  MEOH      HO1            19.0691358959       10.8338208461       27.7376975646  MEOH      3093            0.0000000000
     47788      3785  MEOH      HO2            19.4315147706        9.2398303977       28.1342994030  MEOH      3093            0.0000000000
     47789      3785  MEOH      H1A            20.4812007623        9.8145564761       30.0264509931  MEOH      3093            0.0000000000
     47790      3785  MEOH      H1B            20.1211338256       11.5546701068       29.6702657999  MEOH      3093            0.0000000000
     47791      3785  MEOH      H1C            21.2581642614       10.6219059232       28.6171865250  MEOH      3093            0.0000000000
     47792      3785  MEOH      LP1A           19.3437567745        9.9580016549       28.1358464230  MEOH      3093            0.0000000000
     47793      3785  MEOH      LP1B           18.9272125252       10.2604275960       28.5452100003  MEOH      3093            0.0000000000
     47794      3786  MEOH      C1             27.1369697586      -22.5449935543       20.7094875147  MEOH      3094            0.0000000000
     47795      3786  MEOH      DC1            27.1291371952      -22.5351605199       20.7139856104  MEOH      3094            0.0000000000
     47796      3786  MEOH      O1             25.8595639580      -21.9177111650       20.8608349353  MEOH      3094            0.0000000000
     47797      3786  MEOH      DO1            25.8494240954      -21.9065513112       20.8612043176  MEOH      3094            0.0000000000
     47798      3786  MEOH      HO1            25.2103673623      -22.5902503024       20.6017309212  MEOH      3094            0.0000000000
     47799      3786  MEOH      HO2            25.8511382560      -21.5581819998       21.7617055070  MEOH      3094            0.0000000000
     47800      3786  MEOH      H1A            27.9472059098      -21.8342313462       20.9790342893  MEOH      3094            0.0000000000
     47801      3786  MEOH      H1B            27.2816512967      -22.8726170264       19.6577978680  MEOH      3094            0.0000000000
     47802      3786  MEOH      H1C            27.2006685105      -23.4331381343       21.3739140917  MEOH      3094            0.0000000000
     47803      3786  MEOH      LP1A           25.7403668538      -21.9658783821       21.1863682969  MEOH      3094            0.0000000000
     47804      3786  MEOH      LP1B           25.7702145280      -21.7549669395       20.5641347560  MEOH      3094            0.0000000000
     47805      3787  MEOH      C1             -5.3229995025       25.4593716219       -3.5267176776  MEOH      3095            0.0000000000
     47806      3787  MEOH      DC1            -5.3123506165       25.4562863816       -3.5247431198  MEOH      3095            0.0000000000
     47807      3787  MEOH      O1             -5.4528519631       24.1952323842       -4.1729821820  MEOH      3095            0.0000000000
     47808      3787  MEOH      DO1            -5.4495462766       24.1878507806       -4.1685810541  MEOH      3095            0.0000000000
     47809      3787  MEOH      HO1            -5.6759837036       23.5393999272       -3.4940153085  MEOH      3095            0.0000000000
     47810      3787  MEOH      HO2            -6.0351976209       24.3481640795       -4.9334987377  MEOH      3095            0.0000000000
     47811      3787  MEOH      H1A            -5.0065784520       26.2182614997       -4.2739023098  MEOH      3095            0.0000000000
     47812      3787  MEOH      H1B            -4.5670317160       25.4071958728       -2.7142452796  MEOH      3095            0.0000000000
     47813      3787  MEOH      H1C            -6.3047985066       25.7651495158       -3.1061328526  MEOH      3095            0.0000000000
     47814      3787  MEOH      LP1A           -5.7824746898       24.1495260041       -4.2814247238  MEOH      3095            0.0000000000
     47815      3787  MEOH      LP1B           -5.1425967756       24.0335591252       -4.1831544957  MEOH      3095            0.0000000000
     47816      3788  MEOH      C1            -11.0002558436       10.0328526552        7.4453732491  MEOH      3096            0.0000000000
     47817      3788  MEOH      DC1           -10.9901988592       10.0440809355        7.4482403893  MEOH      3096            0.0000000000
     47818      3788  MEOH      O1            -10.8361036607       10.7193160306        8.6855484237  MEOH      3096            0.0000000000
     47819      3788  MEOH      DO1           -10.8298891335       10.7271903514        8.6884103301  MEOH      3096            0.0000000000
     47820      3788  MEOH      HO1           -11.5805025829       10.4476136781        9.2449660476  MEOH      3096            0.0000000000
     47821      3788  MEOH      HO2            -9.9235865007       10.5515867806        8.9685313410  MEOH      3096            0.0000000000
     47822      3788  MEOH      H1A           -10.2294915235       10.3771120386        6.7230652535  MEOH      3096            0.0000000000
     47823      3788  MEOH      H1B           -12.0106113797       10.2367234825        7.0307175145  MEOH      3096            0.0000000000
     47824      3788  MEOH      H1C           -10.8880026857        8.9386808263        7.6019243192  MEOH      3096            0.0000000000
     47825      3788  MEOH      LP1A          -10.6392281940       10.5283219613        8.9029451028  MEOH      3096            0.0000000000
     47826      3788  MEOH      LP1B          -10.9958832906       11.0304316645        8.6722243023  MEOH      3096            0.0000000000
     47827      3789  MEOH      C1              9.8737092515       17.7921423826       26.3079834191  MEOH      3097            0.0000000000
     47828      3789  MEOH      DC1             9.8758879721       17.7986243265       26.3076712998  MEOH      3097            0.0000000000
     47829      3789  MEOH      O1             10.5135080989       18.4774479695       25.2279055873  MEOH      3097            0.0000000000
     47830      3789  MEOH      DO1            10.5143047007       18.4833555159       25.2285363892  MEOH      3097            0.0000000000
     47831      3789  MEOH      HO1            10.5720154201       19.4148991070       25.4701085148  MEOH      3097            0.0000000000
     47832      3789  MEOH      HO2            11.3212305514       17.9748697738       25.0384336929  MEOH      3097            0.0000000000
     47833      3789  MEOH      H1A             9.7376059320       16.7204261657       26.0487128298  MEOH      3097            0.0000000000
     47834      3789  MEOH      H1B             8.8667821463       18.2206537554       26.4998083618  MEOH      3097            0.0000000000
     47835      3789  MEOH      H1C            10.4931482925       17.8660729441       27.2273041175  MEOH      3097            0.0000000000
     47836      3789  MEOH      LP1A           10.8604851796       18.4756247004       25.2737704010  MEOH      3097            0.0000000000
     47837      3789  MEOH      LP1B           10.2745282346       18.5840916306       24.9954926917  MEOH      3097            0.0000000000
     47838      3790  MEOH      C1            -32.2756764277      -28.7351729975        3.7018961768  MEOH      3098            0.0000000000
     47839      3790  MEOH      DC1           -32.2620018755      -28.7388916193        3.7016745413  MEOH      3098            0.0000000000
     47840      3790  MEOH      O1            -31.5747607666      -28.8767086898        4.9411582810  MEOH      3098            0.0000000000
     47841      3790  MEOH      DO1           -31.5650967297      -28.8853677113        4.9476037240  MEOH      3098            0.0000000000
     47842      3790  MEOH      HO1           -30.6814109156      -29.1845187731        4.7218890457  MEOH      3098            0.0000000000
     47843      3790  MEOH      HO2           -31.6865171251      -28.0275138998        5.3964370143  MEOH      3098            0.0000000000
     47844      3790  MEOH      H1A           -33.3190266364      -28.4010496905        3.8865660433  MEOH      3098            0.0000000000
     47845      3790  MEOH      H1B           -32.3022850887      -29.7084595227        3.1668014939  MEOH      3098            0.0000000000
     47846      3790  MEOH      H1C           -31.7693303643      -27.9777977958        3.0660365477  MEOH      3098            0.0000000000
     47847      3790  MEOH      LP1A          -31.4187708877      -28.5749848259        5.0255968245  MEOH      3098            0.0000000000
     47848      3790  MEOH      LP1B          -31.6228171176      -29.1986534568        5.0697745868  MEOH      3098            0.0000000000
     47849      3791  MEOH      C1             33.6534291383      -31.2739995774       17.3916639325  MEOH      3099            0.0000000000
     47850      3791  MEOH      DC1            33.6703239945      -31.2774527972       17.3918593429  MEOH      3099            0.0000000000
     47851      3791  MEOH      O1             33.9962801175      -30.1154891652       16.6276146395  MEOH      3099            0.0000000000
     47852      3791  MEOH      DO1            34.0120213041      -30.1121463367       16.6313923633  MEOH      3099            0.0000000000
     47853      3791  MEOH      HO1            33.1588442279      -29.7275699950       16.3290851613  MEOH      3099            0.0000000000
     47854      3791  MEOH      HO2            34.6343780450      -29.6122234122       17.1571943000  MEOH      3099            0.0000000000
     47855      3791  MEOH      H1A            34.5712364292      -31.8476679215       17.6423737403  MEOH      3099            0.0000000000
     47856      3791  MEOH      H1B            32.9638478393      -31.9192976526       16.8065237546  MEOH      3099            0.0000000000
     47857      3791  MEOH      H1C            33.1593042020      -30.9763248728       18.3411644950  MEOH      3099            0.0000000000
     47858      3791  MEOH      LP1A           34.0183348231      -29.8360673262       16.8372262466  MEOH      3099            0.0000000000
     47859      3791  MEOH      LP1B           34.0427832036      -30.2029370283       16.2919208293  MEOH      3099            0.0000000000
     47860      3792  MEOH      C1            -32.2061879492       32.4893247625      -36.6630784723  MEOH      3100            0.0000000000
     47861      3792  MEOH      DC1           -32.1996634137       32.4973198567      -36.6663269757  MEOH      3100            0.0000000000
     47862      3792  MEOH      O1            -31.8454139777       33.7914621369      -37.1293469787  MEOH      3100            0.0000000000
     47863      3792  MEOH      DO1           -31.8465342406       33.7966713963      -37.1379761032  MEOH      3100            0.0000000000
     47864      3792  MEOH      HO1           -32.6582880588       34.2016489107      -37.4638354522  MEOH      3100            0.0000000000
     47865      3792  MEOH      HO2           -31.3605961574       34.2055065131      -36.3983073514  MEOH      3100            0.0000000000
     47866      3792  MEOH      H1A           -31.2980197852       31.9383143637      -36.3375955583  MEOH      3100            0.0000000000
     47867      3792  MEOH      H1B           -32.7101875817       31.9179418352      -37.4716741196  MEOH      3100            0.0000000000
     47868      3792  MEOH      H1C           -32.8939688403       32.5748405288      -35.7947666032  MEOH      3100            0.0000000000
     47869      3792  MEOH      LP1A          -31.8702166657       34.0232299216      -36.8682559588  MEOH      3100            0.0000000000
     47870      3792  MEOH      LP1B          -31.7492775951       33.7758532800      -37.4655227653  MEOH      3100            0.0000000000
     47871      3793  MEOH      C1             29.6519755226       32.9138590524       32.5127371736  MEOH      3101            0.0000000000
     47872      3793  MEOH      DC1            29.6588250396       32.9244170261       32.5105522575  MEOH      3101            0.0000000000
     47873      3793  MEOH      O1             29.7286807659       32.7357189518       33.9291774514  MEOH      3101            0.0000000000
     47874      3793  MEOH      DO1            29.7235971493       32.7370497727       33.9308446963  MEOH      3101            0.0000000000
     47875      3793  MEOH      HO1            30.0473566851       33.5669006192       34.3145119740  MEOH      3101            0.0000000000
     47876      3793  MEOH      HO2            28.8728761357       32.3647228540       34.1953734920  MEOH      3101            0.0000000000
     47877      3793  MEOH      H1A            29.3781150333       31.9532926154       32.0262872249  MEOH      3101            0.0000000000
     47878      3793  MEOH      H1B            30.6351460051       33.2506057774       32.1199287637  MEOH      3101            0.0000000000
     47879      3793  MEOH      H1C            28.8717778948       33.6669939488       32.2710752406  MEOH      3101            0.0000000000
     47880      3793  MEOH      LP1A           29.4230455616       32.8204229997       34.0772056451  MEOH      3101            0.0000000000
     47881      3793  MEOH      LP1B           30.0433986154       32.6103987146       34.0171974114  MEOH      3101            0.0000000000
     47882      3794  MEOH      C1            -23.3444390305       17.3442581377       -9.6463378397  MEOH      3102            0.0000000000
     47883      3794  MEOH      DC1           -23.3386710813       17.3500427511       -9.6417633530  MEOH      3102            0.0000000000
     47884      3794  MEOH      O1            -22.8515975423       16.8618396426      -10.8958647452  MEOH      3102            0.0000000000
     47885      3794  MEOH      DO1           -22.8548856101       16.8587678899      -10.8894621424  MEOH      3102            0.0000000000
     47886      3794  MEOH      HO1           -22.2272485430       16.1403416182      -10.7211394509  MEOH      3102            0.0000000000
     47887      3794  MEOH      HO2           -23.6350018544       16.7082366325      -11.4468491361  MEOH      3102            0.0000000000
     47888      3794  MEOH      H1A           -23.9790505042       18.2396295911       -9.8192518035  MEOH      3102            0.0000000000
     47889      3794  MEOH      H1B           -22.5039709659       17.6159930291       -8.9724724368  MEOH      3102            0.0000000000
     47890      3794  MEOH      H1C           -23.9622951973       16.5527523787       -9.1708450502  MEOH      3102            0.0000000000
     47891      3794  MEOH      LP1A          -23.0603069295       16.6083540175      -11.0170481991  MEOH      3102            0.0000000000
     47892      3794  MEOH      LP1B          -22.5666822337       17.0421075642      -10.9898154950  MEOH      3102            0.0000000000
     47893      3795  MEOH      C1             24.4967800048       11.4003557080      -16.2048828605  MEOH      3103            0.0000000000
     47894      3795  MEOH      DC1            24.4923683543       11.4108227896      -16.2203508721  MEOH      3103            0.0000000000
     47895      3795  MEOH      O1             25.2089065807       11.8433346694      -17.3623087860  MEOH      3103            0.0000000000
     47896      3795  MEOH      DO1            25.2143719740       11.8581995992      -17.3721718024  MEOH      3103            0.0000000000
     47897      3795  MEOH      HO1            25.9543613365       11.2266792676      -17.4325464007  MEOH      3103            0.0000000000
     47898      3795  MEOH      HO2            24.5520065263       11.8885521932      -18.0745852037  MEOH      3103            0.0000000000
     47899      3795  MEOH      H1A            23.6018383055       12.0362085046      -16.0343203325  MEOH      3103            0.0000000000
     47900      3795  MEOH      H1B            25.1540588240       11.4562605173      -15.3109140646  MEOH      3103            0.0000000000
     47901      3795  MEOH      H1C            24.1856075912       10.3426212404      -16.3415961581  MEOH      3103            0.0000000000
     47902      3795  MEOH      LP1A           25.0825247866       11.6858321717      -17.6481769468  MEOH      3103            0.0000000000
     47903      3795  MEOH      LP1B           25.4469137044       12.0834601255      -17.2717970501  MEOH      3103            0.0000000000
     47904      3796  MEOH      C1              7.0780768548       26.1206310646        0.6167576945  MEOH      3104            0.0000000000
     47905      3796  MEOH      DC1             7.0696064329       26.1186684662        0.6153411276  MEOH      3104            0.0000000000
     47906      3796  MEOH      O1              6.8697140146       25.5824514783       -0.6917943068  MEOH      3104            0.0000000000
     47907      3796  MEOH      DO1             6.8547326990       25.5809258763       -0.6915765960  MEOH      3104            0.0000000000
     47908      3796  MEOH      HO1             6.4928461576       24.6923509544       -0.6106051684  MEOH      3104            0.0000000000
     47909      3796  MEOH      HO2             6.4747274866       26.2804680616       -1.2373751828  MEOH      3104            0.0000000000
     47910      3796  MEOH      H1A             7.7468470681       27.0052096394        0.5490218209  MEOH      3104            0.0000000000
     47911      3796  MEOH      H1B             7.5781261370       25.3740463189        1.2701204829  MEOH      3104            0.0000000000
     47912      3796  MEOH      H1C             6.1071741068       26.4181233495        1.0674984119  MEOH      3104            0.0000000000
     47913      3796  MEOH      LP1A            6.5514105773       25.6700969262       -0.8079889595  MEOH      3104            0.0000000000
     47914      3796  MEOH      LP1B            7.1572781502       25.4143669104       -0.7992859154  MEOH      3104            0.0000000000
     47915      3797  MEOH      C1            -36.6475574668       -2.6016863276      -33.5552565998  MEOH      3105            0.0000000000
     47916      3797  MEOH      DC1           -36.6552763154       -2.6071407133      -33.5563868014  MEOH      3105            0.0000000000
     47917      3797  MEOH      O1            -36.3463932380       -3.0894942672      -34.8646929095  MEOH      3105            0.0000000000
     47918      3797  MEOH      DO1           -36.3503772029       -3.0963205588      -34.8636701116  MEOH      3105            0.0000000000
     47919      3797  MEOH      HO1           -35.7896738330       -2.4239032389      -35.2982273235  MEOH      3105            0.0000000000
     47920      3797  MEOH      HO2           -36.0291844749       -3.9985048992      -34.7464631692  MEOH      3105            0.0000000000
     47921      3797  MEOH      H1A           -37.3829419336       -3.2758725986      -33.0663766984  MEOH      3105            0.0000000000
     47922      3797  MEOH      H1B           -37.0822839205       -1.5812311836      -33.6185433391  MEOH      3105            0.0000000000
     47923      3797  MEOH      H1C           -35.7216055906       -2.5688002544      -32.9421883902  MEOH      3105            0.0000000000
     47924      3797  MEOH      LP1A          -36.0553226700       -3.2836691618      -34.8560885664  MEOH      3105            0.0000000000
     47925      3797  MEOH      LP1B          -36.5931704241       -2.9864838714      -35.0905022954  MEOH      3105            0.0000000000
     47926      3798  MEOH      C1            -12.8646240610       24.6039160749        5.3599798553  MEOH      3106            0.0000000000
     47927      3798  MEOH      DC1           -12.8660217613       24.6104137779        5.3699191198  MEOH      3106            0.0000000000
     47928      3798  MEOH      O1            -13.0511048482       25.8853392800        5.9642112480  MEOH      3106            0.0000000000
     47929      3798  MEOH      DO1           -13.0581741337       25.8920684138        5.9780871964  MEOH      3106            0.0000000000
     47930      3798  MEOH      HO1           -13.0466117711       26.5190949734        5.2298860240  MEOH      3106            0.0000000000
     47931      3798  MEOH      HO2           -13.8186446806       25.7961488559        6.5505794549  MEOH      3106            0.0000000000
     47932      3798  MEOH      H1A           -12.6971277436       23.8348702867        6.1440937243  MEOH      3106            0.0000000000
     47933      3798  MEOH      H1B           -11.9790167669       24.6300025983        4.6896514179  MEOH      3106            0.0000000000
     47934      3798  MEOH      H1C           -13.7613835249       24.3256622034        4.7660789814  MEOH      3106            0.0000000000
     47935      3798  MEOH      LP1A          -13.3927157127       25.9571872496        5.9895072264  MEOH      3106            0.0000000000
     47936      3798  MEOH      LP1B          -12.7412050446       26.0232393874        6.0504995560  MEOH      3106            0.0000000000
     47937      3799  MEOH      C1             -0.5113837942      -19.7267040641      -18.6008603751  MEOH      3107            0.0000000000
     47938      3799  MEOH      DC1            -0.5166896127      -19.7261048336      -18.5931439566  MEOH      3107            0.0000000000
     47939      3799  MEOH      O1             -0.6420736285      -21.0465312677      -19.1289589825  MEOH      3107            0.0000000000
     47940      3799  MEOH      DO1            -0.6530422196      -21.0449068201      -19.1219249664  MEOH      3107            0.0000000000
     47941      3799  MEOH      HO1            -0.0708684703      -21.6446622704      -18.6221414887  MEOH      3107            0.0000000000
     47942      3799  MEOH      HO2            -1.5835599064      -21.2144184151      -19.2911856576  MEOH      3107            0.0000000000
     47943      3799  MEOH      H1A            -0.9394111339      -19.0022955487      -19.3263573771  MEOH      3107            0.0000000000
     47944      3799  MEOH      H1B             0.5583420866      -19.4728713956      -18.4409337782  MEOH      3107            0.0000000000
     47945      3799  MEOH      H1C            -1.0525621068      -19.6540048215      -17.6333057999  MEOH      3107            0.0000000000
     47946      3799  MEOH      LP1A           -0.9038841377      -21.2143462041      -18.9683557310  MEOH      3107            0.0000000000
     47947      3799  MEOH      LP1B           -0.4096823985      -21.0962051610      -19.3859158282  MEOH      3107            0.0000000000
     47948      3800  MEOH      C1              3.9383596954      -10.0461838098      -23.0092692329  MEOH      3108            0.0000000000
     47949      3800  MEOH      DC1             3.9281101427      -10.0404020205      -23.0172369478  MEOH      3108            0.0000000000
     47950      3800  MEOH      O1              3.2607750038      -11.0774814591      -23.7284317665  MEOH      3108            0.0000000000
     47951      3800  MEOH      DO1             3.2494023089      -11.0681418458      -23.7240965208  MEOH      3108            0.0000000000
     47952      3800  MEOH      HO1             2.8801024543      -11.7055760434      -23.0948028504  MEOH      3108            0.0000000000
     47953      3800  MEOH      HO2             2.7294406577      -10.6459866736      -24.4157425143  MEOH      3108            0.0000000000
     47954      3800  MEOH      H1A             4.5232443793       -9.4309288826      -23.7259925280  MEOH      3108            0.0000000000
     47955      3800  MEOH      H1B             4.6293587180      -10.4827080162      -22.2567481580  MEOH      3108            0.0000000000
     47956      3800  MEOH      H1C             3.2182111510       -9.3835087874      -22.4833710581  MEOH      3108            0.0000000000
     47957      3800  MEOH      LP1A            2.9280661668      -10.9849533957      -23.7853825107  MEOH      3108            0.0000000000
     47958      3800  MEOH      LP1B            3.4827948051      -11.3378710318      -23.8019469233  MEOH      3108            0.0000000000
     47959      3801  MEOH      C1             14.8668678836      -28.0166951383      -22.5624493821  MEOH      3109            0.0000000000
     47960      3801  MEOH      DC1            14.8697553480      -28.0223376744      -22.5495139563  MEOH      3109            0.0000000000
     47961      3801  MEOH      O1             15.6394421221      -27.8665509427      -23.7554669372  MEOH      3109            0.0000000000
     47962      3801  MEOH      DO1            15.6403287853      -27.8765396054      -23.7528797909  MEOH      3109            0.0000000000
     47963      3801  MEOH      HO1            15.6270881891      -26.9213660845      -23.9731202531  MEOH      3109            0.0000000000
     47964      3801  MEOH      HO2            16.4810421212      -28.3172154105      -23.5836793390  MEOH      3109            0.0000000000
     47965      3801  MEOH      H1A            14.8023083751      -29.0935189147      -22.2967359530  MEOH      3109            0.0000000000
     47966      3801  MEOH      H1B            13.8424839749      -27.6180884038      -22.7239154148  MEOH      3109            0.0000000000
     47967      3801  MEOH      H1C            15.3516887139      -27.4680597310      -21.7268244948  MEOH      3109            0.0000000000
     47968      3801  MEOH      LP1A           15.9759120305      -27.8144010209      -23.6744213550  MEOH      3109            0.0000000000
     47969      3801  MEOH      LP1B           15.4343698481      -27.9048565509      -24.0364972608  MEOH      3109            0.0000000000
     47970      3802  MEOH      C1             28.9385334041       34.2235556206       19.2927400410  MEOH      3110            0.0000000000
     47971      3802  MEOH      DC1            28.9331325948       34.2040511623       19.2859309739  MEOH      3110            0.0000000000
     47972      3802  MEOH      O1             29.0778808952       32.8041823914       19.2297471413  MEOH      3110            0.0000000000
     47973      3802  MEOH      DO1            29.0634747709       32.7864903245       19.2249952613  MEOH      3110            0.0000000000
     47974      3802  MEOH      HO1            29.2324734734       32.5951373434       18.2952412276  MEOH      3110            0.0000000000
     47975      3802  MEOH      HO2            29.7722830226       32.5921832679       19.8729905308  MEOH      3110            0.0000000000
     47976      3802  MEOH      H1A            28.9614644980       34.5784948137       20.3452671593  MEOH      3110            0.0000000000
     47977      3802  MEOH      H1B            27.9918847894       34.5476503985       18.8098943355  MEOH      3110            0.0000000000
     47978      3802  MEOH      H1C            29.7827490601       34.6928125825       18.7437238014  MEOH      3110            0.0000000000
     47979      3802  MEOH      LP1A           29.4128835397       32.7145697734       19.2771054233  MEOH      3110            0.0000000000
     47980      3802  MEOH      LP1B           28.7646632606       32.6550991892       19.1831755597  MEOH      3110            0.0000000000
     47981      3803  MEOH      C1             11.2880691250       34.5796692742       -0.5157392730  MEOH      3111            0.0000000000
     47982      3803  MEOH      DC1            11.2749696456       34.5844981881       -0.5364955754  MEOH      3111            0.0000000000
     47983      3803  MEOH      O1             10.3526845459       33.5250184710       -0.3285574469  MEOH      3111            0.0000000000
     47984      3803  MEOH      DO1            10.3374378387       33.5260036116       -0.3368272950  MEOH      3111            0.0000000000
     47985      3803  MEOH      HO1             9.9641496786       33.3022949295       -1.1889845979  MEOH      3111            0.0000000000
     47986      3803  MEOH      HO2            10.8203534831       32.8495937598        0.1871820461  MEOH      3111            0.0000000000
     47987      3803  MEOH      H1A            11.7235413552       34.8380837142        0.4731524879  MEOH      3111            0.0000000000
     47988      3803  MEOH      H1B            10.7997852717       35.4742232699       -0.9580887133  MEOH      3111            0.0000000000
     47989      3803  MEOH      H1C            12.1054762092       34.2384672010       -1.1863716656  MEOH      3111            0.0000000000
     47990      3803  MEOH      LP1A           10.5136817746       33.2156254638       -0.3578125229  MEOH      3111            0.0000000000
     47991      3803  MEOH      LP1B           10.0365336334       33.6567876487       -0.2565471393  MEOH      3111            0.0000000000
     47992      3804  MEOH      C1            -27.0534805196      -36.7501271496       32.7664847489  MEOH      3112            0.0000000000
     47993      3804  MEOH      DC1           -27.0556361251      -36.7547042349       32.7698729329  MEOH      3112            0.0000000000
     47994      3804  MEOH      O1            -27.2480036065      -35.3559666762       32.5902535171  MEOH      3112            0.0000000000
     47995      3804  MEOH      DO1           -27.2504418450      -35.3588526811       32.5892196312  MEOH      3112            0.0000000000
     47996      3804  MEOH      HO1           -27.6021615361      -34.9981556182       33.4193755875  MEOH      3112            0.0000000000
     47997      3804  MEOH      HO2           -26.4081225100      -35.0340664731       32.2271006518  MEOH      3112            0.0000000000
     47998      3804  MEOH      H1A           -26.2864751197      -37.0397462172       32.0167217783  MEOH      3112            0.0000000000
     47999      3804  MEOH      H1B           -28.0016728013      -37.3044679950       32.5992764175  MEOH      3112            0.0000000000
     48000      3804  MEOH      H1C           -26.6288650068      -36.9865028438       33.7655589194  MEOH      3112            0.0000000000
     48001      3804  MEOH      LP1A          -26.9564533016      -35.1825779279       32.6764785809  MEOH      3112            0.0000000000
     48002      3804  MEOH      LP1B          -27.5684853390      -35.2948923404       32.4635199988  MEOH      3112            0.0000000000
     48003      3805  MEOH      C1             -3.2608136543      -22.4250170914       -0.6142659264  MEOH      3113            0.0000000000
     48004      3805  MEOH      DC1            -3.2685493000      -22.4380121519       -0.6285216702  MEOH      3113            0.0000000000
     48005      3805  MEOH      O1             -3.6928634481      -21.1007101791       -0.2957457623  MEOH      3113            0.0000000000
     48006      3805  MEOH      DO1            -3.6935676670      -21.1132687774       -0.3061691234  MEOH      3113            0.0000000000
     48007      3805  MEOH      HO1            -4.4134009462      -21.1501053246        0.3517770817  MEOH      3113            0.0000000000
     48008      3805  MEOH      HO2            -2.8855160860      -20.6139356255       -0.0674022216  MEOH      3113            0.0000000000
     48009      3805  MEOH      H1A            -2.4611023598      -22.3659667590       -1.3832236011  MEOH      3113            0.0000000000
     48010      3805  MEOH      H1B            -4.1104086814      -23.0223158121       -1.0089094727  MEOH      3113            0.0000000000
     48011      3805  MEOH      H1C            -2.8460902972      -22.9220064430        0.2886887355  MEOH      3113            0.0000000000
     48012      3805  MEOH      LP1A           -3.5059825786      -20.9750118153       -0.0278363336  MEOH      3113            0.0000000000
     48013      3805  MEOH      LP1B           -3.9443088479      -21.0002378523       -0.5175125823  MEOH      3113            0.0000000000
     48014      3806  MEOH      C1            -22.4941983071      -26.6221667200        7.1016009961  MEOH      3114            0.0000000000
     48015      3806  MEOH      DC1           -22.4916113739      -26.6255312924        7.0923478325  MEOH      3114            0.0000000000
     48016      3806  MEOH      O1            -22.8543751284      -25.3858896685        6.4805482776  MEOH      3114            0.0000000000
     48017      3806  MEOH      DO1           -22.8423432238      -25.4032512099        6.4436117069  MEOH      3114            0.0000000000
     48018      3806  MEOH      HO1           -23.7306235747      -25.1579962442        6.8286190292  MEOH      3114            0.0000000000
     48019      3806  MEOH      HO2           -22.1464277627      -24.7737528154        6.7354972929  MEOH      3114            0.0000000000
     48020      3806  MEOH      H1A           -21.4077529285      -26.8069586916        6.9608552449  MEOH      3114            0.0000000000
     48021      3806  MEOH      H1B           -23.0701004328      -27.4590840467        6.6519042853  MEOH      3114            0.0000000000
     48022      3806  MEOH      H1C           -22.7073699151      -26.5743681530        8.1909100263  MEOH      3114            0.0000000000
     48023      3806  MEOH      LP1A          -22.7385173576      -25.1172177417        6.6726221506  MEOH      3114            0.0000000000
     48024      3806  MEOH      LP1B          -23.0205915942      -25.4474932126        6.1787584669  MEOH      3114            0.0000000000
     48025      3807  MEOH      C1            -21.3495187055       -5.7353781139      -26.6689375173  MEOH      3115            0.0000000000
     48026      3807  MEOH      DC1           -21.3394599528       -5.7408502630      -26.6749531772  MEOH      3115            0.0000000000
     48027      3807  MEOH      O1            -21.1336729525       -6.6321457175      -27.7614386161  MEOH      3115            0.0000000000
     48028      3807  MEOH      DO1           -21.1248563660       -6.6367203543      -27.7659452325  MEOH      3115            0.0000000000
     48029      3807  MEOH      HO1           -21.9960853689       -7.0279935299      -27.9625588126  MEOH      3115            0.0000000000
     48030      3807  MEOH      HO2           -20.6705689525       -6.1143339019      -28.4384213410  MEOH      3115            0.0000000000
     48031      3807  MEOH      H1A           -20.3859178408       -5.2755935804      -26.3617038012  MEOH      3115            0.0000000000
     48032      3807  MEOH      H1B           -21.7775556814       -6.2842993859      -25.8030329116  MEOH      3115            0.0000000000
     48033      3807  MEOH      H1C           -22.0487653539       -4.9271985925      -26.9726166018  MEOH      3115            0.0000000000
     48034      3807  MEOH      LP1A          -21.1723018008       -6.4623976305      -28.0650722753  MEOH      3115            0.0000000000
     48035      3807  MEOH      LP1B          -21.0477635164       -6.9492744619      -27.6408196777  MEOH      3115            0.0000000000
     48036      3808  MEOH      C1              6.8137738044      -22.7250424830        7.5145167770  MEOH      3116            0.0000000000
     48037      3808  MEOH      DC1             6.8120512687      -22.7243745885        7.5092445604  MEOH      3116            0.0000000000
     48038      3808  MEOH      O1              6.0349204245      -21.6886873394        6.9019763330  MEOH      3116            0.0000000000
     48039      3808  MEOH      DO1             6.0325866981      -21.6821111595        6.8918503792  MEOH      3116            0.0000000000
     48040      3808  MEOH      HO1             5.5698339198      -21.2523439734        7.6328655252  MEOH      3116            0.0000000000
     48041      3808  MEOH      HO2             6.6507324098      -21.1874470318        6.3448105114  MEOH      3116            0.0000000000
     48042      3808  MEOH      H1A             7.3850057865      -23.2849418976        6.7434605729  MEOH      3116            0.0000000000
     48043      3808  MEOH      H1B             6.1383812176      -23.4163464551        8.0624808928  MEOH      3116            0.0000000000
     48044      3808  MEOH      H1C             7.5540959622      -22.3099642130        8.2314227209  MEOH      3116            0.0000000000
     48045      3808  MEOH      LP1A            6.2230749428      -21.3943444881        6.8805249190  MEOH      3116            0.0000000000
     48046      3808  MEOH      LP1B            5.7207176803      -21.8130691092        6.8108401113  MEOH      3116            0.0000000000
     48047      3809  MEOH      C1            -15.6593124984      -35.2865852895      -16.5608723366  MEOH      3117            0.0000000000
     48048      3809  MEOH      DC1           -15.6581026374      -35.2815058242      -16.5700083193  MEOH      3117            0.0000000000
     48049      3809  MEOH      O1            -15.5535841827      -36.7018707066      -16.7178319205  MEOH      3117            0.0000000000
     48050      3809  MEOH      DO1           -15.5502622998      -36.6900493998      -16.7240897383  MEOH      3117            0.0000000000
     48051      3809  MEOH      HO1           -16.4076651890      -37.1065934179      -16.4995542026  MEOH      3117            0.0000000000
     48052      3809  MEOH      HO2           -15.1383416043      -36.8502395819      -17.5818112477  MEOH      3117            0.0000000000
     48053      3809  MEOH      H1A           -14.6532756282      -34.8280450484      -16.6701959988  MEOH      3117            0.0000000000
     48054      3809  MEOH      H1B           -16.0783309007      -35.0293211348      -15.5645994147  MEOH      3117            0.0000000000
     48055      3809  MEOH      H1C           -16.3120979714      -34.8566365530      -17.3503887778  MEOH      3117            0.0000000000
     48056      3809  MEOH      LP1A          -15.6326914522      -36.7920890788      -17.0466216485  MEOH      3117            0.0000000000
     48057      3809  MEOH      LP1B          -15.4457756947      -36.8477838774      -16.4185215857  MEOH      3117            0.0000000000
     48058      3810  MEOH      C1            -36.1018552141      -27.7231427065       15.9415447180  MEOH      3118            0.0000000000
     48059      3810  MEOH      DC1           -36.0996462758      -27.7159175471       15.9321684779  MEOH      3118            0.0000000000
     48060      3810  MEOH      O1            -36.4555059676      -27.0980381062       17.1758149875  MEOH      3118            0.0000000000
     48061      3810  MEOH      DO1           -36.4526346985      -27.0931038222       17.1566328386  MEOH      3118            0.0000000000
     48062      3810  MEOH      HO1           -35.7025625514      -26.5910839165       17.5178291131  MEOH      3118            0.0000000000
     48063      3810  MEOH      HO2           -37.3127405554      -26.6687459638       17.0283120449  MEOH      3118            0.0000000000
     48064      3810  MEOH      H1A           -36.8497046192      -28.5114079161       15.7098547768  MEOH      3118            0.0000000000
     48065      3810  MEOH      H1B           -35.0983921089      -28.1961650712       16.0018161033  MEOH      3118            0.0000000000
     48066      3810  MEOH      H1C           -36.1283492300      -26.9675210801       15.1275084627  MEOH      3118            0.0000000000
     48067      3810  MEOH      LP1A          -36.5944454839      -26.7826499540       17.1147729993  MEOH      3118            0.0000000000
     48068      3810  MEOH      LP1B          -36.3863701295      -27.3131831742       17.4430842068  MEOH      3118            0.0000000000
     48069      3811  MEOH      C1            -21.1946246688       28.5140586778      -20.8243440026  MEOH      3119            0.0000000000
     48070      3811  MEOH      DC1           -21.1938013633       28.5056163913      -20.8243284310  MEOH      3119            0.0000000000
     48071      3811  MEOH      O1            -22.1182254798       29.4316973152      -21.3968433648  MEOH      3119            0.0000000000
     48072      3811  MEOH      DO1           -22.1100759410       29.4347975612      -21.3918770462  MEOH      3119            0.0000000000
     48073      3811  MEOH      HO1           -22.8706353462       29.5187071761      -20.7908659089  MEOH      3119            0.0000000000
     48074      3811  MEOH      HO2           -21.5958591391       30.2042727098      -21.6636029318  MEOH      3119            0.0000000000
     48075      3811  MEOH      H1A           -20.4407535825       28.2491668288      -21.5962453533  MEOH      3119            0.0000000000
     48076      3811  MEOH      H1B           -21.7236979492       27.5901193596      -20.5069505548  MEOH      3119            0.0000000000
     48077      3811  MEOH      H1C           -20.6808751919       28.9643532765      -19.9482063139  MEOH      3119            0.0000000000
     48078      3811  MEOH      LP1A          -22.0405864016       29.7579215764      -21.2965941504  MEOH      3119            0.0000000000
     48079      3811  MEOH      LP1B          -22.3444016595       29.2612742296      -21.6025137507  MEOH      3119            0.0000000000
     48080      3812  MEOH      C1             15.4661418241        8.1356568176       -3.0000484855  MEOH      3120            0.0000000000
     48081      3812  MEOH      DC1            15.4794595721        8.1326822842       -3.0011312193  MEOH      3120            0.0000000000
     48082      3812  MEOH      O1             16.1623796061        7.0239077299       -2.4357926762  MEOH      3120            0.0000000000
     48083      3812  MEOH      DO1            16.1804047184        7.0305255448       -2.4295705650  MEOH      3120            0.0000000000
     48084      3812  MEOH      HO1            15.5741346141        6.6411388473       -1.7661989096  MEOH      3120            0.0000000000
     48085      3812  MEOH      HO2            16.4076266921        6.4668328323       -3.1910551639  MEOH      3120            0.0000000000
     48086      3812  MEOH      H1A            16.0191704169        8.5211342958       -3.8831608737  MEOH      3120            0.0000000000
     48087      3812  MEOH      H1B            15.3820864335        8.9494862598       -2.2484253550  MEOH      3120            0.0000000000
     48088      3812  MEOH      H1C            14.4445365555        7.8337408668       -3.3154695306  MEOH      3120            0.0000000000
     48089      3812  MEOH      LP1A           16.0943498282        6.7341122854       -2.6198865373  MEOH      3120            0.0000000000
     48090      3812  MEOH      LP1B           16.3560617504        7.1293823158       -2.1640164103  MEOH      3120            0.0000000000
     48091      3813  MEOH      C1              1.6353866834      -28.8518514273      -21.0316735106  MEOH      3121            0.0000000000
     48092      3813  MEOH      DC1             1.6463459685      -28.8608830075      -21.0227574992  MEOH      3121            0.0000000000
     48093      3813  MEOH      O1              2.6361667763      -28.8993358567      -20.0101293484  MEOH      3121            0.0000000000
     48094      3813  MEOH      DO1             2.6473817046      -28.9126958091      -20.0010661261  MEOH      3121            0.0000000000
     48095      3813  MEOH      HO1             2.2157915668      -28.5603488441      -19.2043548834  MEOH      3121            0.0000000000
     48096      3813  MEOH      HO2             3.0362221557      -29.7818018094      -20.0560590443  MEOH      3121            0.0000000000
     48097      3813  MEOH      H1A             2.0861380337      -29.0516383404      -22.0272785586  MEOH      3121            0.0000000000
     48098      3813  MEOH      H1B             1.1710724224      -27.8428518145      -21.0572283336  MEOH      3121            0.0000000000
     48099      3813  MEOH      H1C             0.8445225872      -29.6040921995      -20.8243360997  MEOH      3121            0.0000000000
     48100      3813  MEOH      LP1A            2.6287857646      -29.2103051408      -19.8496811480  MEOH      3121            0.0000000000
     48101      3813  MEOH      LP1B            2.8185066051      -28.6005991274      -20.0072047325  MEOH      3121            0.0000000000
     48102      3814  MEOH      C1              7.5800940463        7.9916466831       35.4752294767  MEOH      3122            0.0000000000
     48103      3814  MEOH      DC1             7.5794756532        8.0088622562       35.4619393236  MEOH      3122            0.0000000000
     48104      3814  MEOH      O1              6.2873984074        8.6048643886       35.5370386568  MEOH      3122            0.0000000000
     48105      3814  MEOH      DO1             6.2938882206        8.6281563936       35.5102476363  MEOH      3122            0.0000000000
     48106      3814  MEOH      HO1             6.2805666184        9.3249794358       36.1868752867  MEOH      3122            0.0000000000
     48107      3814  MEOH      HO2             5.9286821122        8.6590194060       34.6374332684  MEOH      3122            0.0000000000
     48108      3814  MEOH      H1A             7.4964519699        6.9966270772       34.9881350419  MEOH      3122            0.0000000000
     48109      3814  MEOH      H1B             7.9796778937        7.8114293471       36.4960994299  MEOH      3122            0.0000000000
     48110      3814  MEOH      H1C             8.2870388249        8.6350351029       34.9090127149  MEOH      3122            0.0000000000
     48111      3814  MEOH      LP1A            6.2669987646        8.8649421297       35.3037075119  MEOH      3122            0.0000000000
     48112      3814  MEOH      LP1B            6.0878643739        8.4400483404       35.7726693843  MEOH      3122            0.0000000000
     48113      3815  MEOH      C1            -13.8929826884       17.0391791761      -34.1314896917  MEOH      3123            0.0000000000
     48114      3815  MEOH      DC1           -13.8794245147       17.0750201168      -34.1461860541  MEOH      3123            0.0000000000
     48115      3815  MEOH      O1            -14.5341293982       16.1047409669      -33.2789671493  MEOH      3123            0.0000000000
     48116      3815  MEOH      DO1           -14.5202298193       16.1317439379      -33.2907157809  MEOH      3123            0.0000000000
     48117      3815  MEOH      HO1           -14.5310012878       16.4216535024      -32.3622029154  MEOH      3123            0.0000000000
     48118      3815  MEOH      HO2           -15.3678230417       15.8791899113      -33.7205343924  MEOH      3123            0.0000000000
     48119      3815  MEOH      H1A           -13.8745083301       16.5908900492      -35.1478639126  MEOH      3123            0.0000000000
     48120      3815  MEOH      H1B           -12.8525234153       17.2293182297      -33.7914710987  MEOH      3123            0.0000000000
     48121      3815  MEOH      H1C           -14.4671988043       17.9897621769      -34.1629350652  MEOH      3123            0.0000000000
     48122      3815  MEOH      LP1A          -14.8769786521       16.1732084220      -33.2626393594  MEOH      3123            0.0000000000
     48123      3815  MEOH      LP1B          -14.3015102711       15.8716702312      -33.1603654044  MEOH      3123            0.0000000000
     48124      3816  MEOH      C1            -16.3447034113       -7.4901352241        5.4716948494  MEOH      3124            0.0000000000
     48125      3816  MEOH      DC1           -16.3547225022       -7.5032300542        5.4511208220  MEOH      3124            0.0000000000
     48126      3816  MEOH      O1            -15.5700031324       -6.7129354562        4.5693908607  MEOH      3124            0.0000000000
     48127      3816  MEOH      DO1           -15.5681590510       -6.7261350442        4.5503891975  MEOH      3124            0.0000000000
     48128      3816  MEOH      HO1           -14.7382549352       -6.5242851036        5.0314579355  MEOH      3124            0.0000000000
     48129      3816  MEOH      HO2           -15.6202835864       -7.1571126373        3.7085316923  MEOH      3124            0.0000000000
     48130      3816  MEOH      H1A           -17.3946683755       -7.5237188124        5.1100780384  MEOH      3124            0.0000000000
     48131      3816  MEOH      H1B           -16.3153424025       -7.0211479352        6.4784271150  MEOH      3124            0.0000000000
     48132      3816  MEOH      H1C           -15.9431503583       -8.5235600376        5.5431742199  MEOH      3124            0.0000000000
     48133      3816  MEOH      LP1A          -15.3777171860       -6.9225459393        4.3654556744  MEOH      3124            0.0000000000
     48134      3816  MEOH      LP1B          -15.6401989129       -6.3728999694        4.6135317729  MEOH      3124            0.0000000000
     48135      3817  MEOH      C1            -14.0117039735       13.8780721925       15.6508860806  MEOH      3125            0.0000000000
     48136      3817  MEOH      DC1           -14.0058610853       13.8808364418       15.6432671041  MEOH      3125            0.0000000000
     48137      3817  MEOH      O1            -15.1136472617       14.7193231734       15.3077266619  MEOH      3125            0.0000000000
     48138      3817  MEOH      DO1           -15.1033886528       14.7330928298       15.2986632509  MEOH      3125            0.0000000000
     48139      3817  MEOH      HO1           -15.2650275068       15.3227195541       16.0519691161  MEOH      3125            0.0000000000
     48140      3817  MEOH      HO2           -14.9871753869       14.9989632359       14.3875602094  MEOH      3125            0.0000000000
     48141      3817  MEOH      H1A           -14.0375493531       12.9522511785       15.0372832233  MEOH      3125            0.0000000000
     48142      3817  MEOH      H1B           -14.0782300524       13.5912258410       16.7221537656  MEOH      3125            0.0000000000
     48143      3817  MEOH      H1C           -13.0503309906       14.4120653218       15.4929800126  MEOH      3125            0.0000000000
     48144      3817  MEOH      LP1A          -14.9989881511       15.0043361758       15.1400338571  MEOH      3125            0.0000000000
     48145      3817  MEOH      LP1B          -15.4139607562       14.5699861878       15.4077779975  MEOH      3125            0.0000000000
     48146      3818  MEOH      C1             12.4856637123       15.2618703961      -14.6977843717  MEOH      3126            0.0000000000
     48147      3818  MEOH      DC1            12.4998844500       15.2599128403      -14.6899522366  MEOH      3126            0.0000000000
     48148      3818  MEOH      O1             13.7204161140       14.5598565504      -14.8760492505  MEOH      3126            0.0000000000
     48149      3818  MEOH      DO1            13.7362572240       14.5677290298      -14.8628204885  MEOH      3126            0.0000000000
     48150      3818  MEOH      HO1            13.8452185938       14.4411777052      -15.8306379959  MEOH      3126            0.0000000000
     48151      3818  MEOH      HO2            14.3797737723       15.0038562692      -14.3201610154  MEOH      3126            0.0000000000
     48152      3818  MEOH      H1A            12.1880107569       15.2300400979      -13.6278729032  MEOH      3126            0.0000000000
     48153      3818  MEOH      H1B            11.6761635078       14.7849845637      -15.2907517599  MEOH      3126            0.0000000000
     48154      3818  MEOH      H1C            12.5853081915       16.3196777563      -15.0224928056  MEOH      3126            0.0000000000
     48155      3818  MEOH      LP1A           13.9851920326       14.7875109736      -14.8998647202  MEOH      3126            0.0000000000
     48156      3818  MEOH      LP1B           13.6636430667       14.2145337001      -14.8706687203  MEOH      3126            0.0000000000
     48157      3819  MEOH      C1            -12.1899341489       -0.1790306072      -29.5756693511  MEOH      3127            0.0000000000
     48158      3819  MEOH      DC1           -12.1886148621       -0.1758013244      -29.5648539868  MEOH      3127            0.0000000000
     48159      3819  MEOH      O1            -13.1776593952       -0.5000183691      -30.5534378651  MEOH      3127            0.0000000000
     48160      3819  MEOH      DO1           -13.1781806216       -0.5037287014      -30.5488328485  MEOH      3127            0.0000000000
     48161      3819  MEOH      HO1           -13.9413848945       -0.8656529609      -30.0802204644  MEOH      3127            0.0000000000
     48162      3819  MEOH      HO2           -13.2800322652        0.3025136282      -31.0885660637  MEOH      3127            0.0000000000
     48163      3819  MEOH      H1A           -11.2771347841        0.2165887806      -30.0702435328  MEOH      3127            0.0000000000
     48164      3819  MEOH      H1B           -11.9007995520       -1.0804526256      -28.9941536333  MEOH      3127            0.0000000000
     48165      3819  MEOH      H1C           -12.6019753655        0.5857219788      -28.8830680820  MEOH      3127            0.0000000000
     48166      3819  MEOH      LP1A          -13.3837823488       -0.2230258908      -30.6107832653  MEOH      3127            0.0000000000
     48167      3819  MEOH      LP1B          -13.1303175241       -0.8271560682      -30.6685016436  MEOH      3127            0.0000000000
     48168      3820  MEOH      C1             21.6612160199       -1.7256289889        1.8411075232  MEOH      3128            0.0000000000
     48169      3820  MEOH      DC1            21.6542266660       -1.7319940936        1.8456632710  MEOH      3128            0.0000000000
     48170      3820  MEOH      O1             20.5511999151       -2.4395561609        2.3865142785  MEOH      3128            0.0000000000
     48171      3820  MEOH      DO1            20.5445719398       -2.4511082469        2.3921661161  MEOH      3128            0.0000000000
     48172      3820  MEOH      HO1            20.7705592978       -3.3825577134        2.3271044047  MEOH      3128            0.0000000000
     48173      3820  MEOH      HO2            20.3799933522       -2.0381848099        3.2528221638  MEOH      3128            0.0000000000
     48174      3820  MEOH      H1A            21.4445757404       -0.6359855534        1.8491805753  MEOH      3128            0.0000000000
     48175      3820  MEOH      H1B            21.8464548229       -2.0356457771        0.7904424113  MEOH      3128            0.0000000000
     48176      3820  MEOH      H1C            22.5827150046       -1.9258043097        2.4285515309  MEOH      3128            0.0000000000
     48177      3820  MEOH      LP1A           20.5934254337       -2.4811301745        2.7314615310  MEOH      3128            0.0000000000
     48178      3820  MEOH      LP1B           20.3174957091       -2.5077422103        2.1350525384  MEOH      3128            0.0000000000
     48179      3821  MEOH      C1             11.8612937997       24.5610493121      -26.0788222744  MEOH      3129            0.0000000000
     48180      3821  MEOH      DC1            11.8519603117       24.5455005482      -26.0914604208  MEOH      3129            0.0000000000
     48181      3821  MEOH      O1             11.9252048820       25.8025563899      -25.3818650611  MEOH      3129            0.0000000000
     48182      3821  MEOH      DO1            11.9148537065       25.7953976374      -25.3979843691  MEOH      3129            0.0000000000
     48183      3821  MEOH      HO1            12.3851298309       26.4576631764      -25.9297739408  MEOH      3129            0.0000000000
     48184      3821  MEOH      HO2            11.0527568519       25.9640753104      -24.9898879277  MEOH      3129            0.0000000000
     48185      3821  MEOH      H1A            11.6134840985       23.7701367501      -25.3389785941  MEOH      3129            0.0000000000
     48186      3821  MEOH      H1B            12.8451421523       24.3203200229      -26.5353448154  MEOH      3129            0.0000000000
     48187      3821  MEOH      H1C            11.0711723210       24.5922809283      -26.8592411592  MEOH      3129            0.0000000000
     48188      3821  MEOH      LP1A           11.6409555886       25.9942014864      -25.4523951692  MEOH      3129            0.0000000000
     48189      3821  MEOH      LP1B           12.2145990059       25.8147809670      -25.1853921603  MEOH      3129            0.0000000000
     48190      3822  MEOH      C1              1.6631618268      -12.2597009236        6.8498288065  MEOH      3130            0.0000000000
     48191      3822  MEOH      DC1             1.6840274925      -12.2715109775        6.8557482319  MEOH      3130            0.0000000000
     48192      3822  MEOH      O1              0.3290816012      -11.9645437058        7.2391162252  MEOH      3130            0.0000000000
     48193      3822  MEOH      DO1             0.3431463748      -11.9733664164        7.2305590216  MEOH      3130            0.0000000000
     48194      3822  MEOH      HO1            -0.2405117152      -12.7088209637        6.9890865909  MEOH      3130            0.0000000000
     48195      3822  MEOH      HO2             0.3835200060      -11.7028435135        8.1715589685  MEOH      3130            0.0000000000
     48196      3822  MEOH      H1A             2.3099298609      -11.3937186001        7.1069021963  MEOH      3130            0.0000000000
     48197      3822  MEOH      H1B             1.7015937444      -12.4301618876        5.7526565093  MEOH      3130            0.0000000000
     48198      3822  MEOH      H1C             2.0293215559      -13.1587578374        7.3901478959  MEOH      3130            0.0000000000
     48199      3822  MEOH      LP1A            0.2728186421      -12.0745461378        7.5665821691  MEOH      3130            0.0000000000
     48200      3822  MEOH      LP1B            0.1639903432      -11.7946910882        6.9814440210  MEOH      3130            0.0000000000
     48201      3823  MEOH      C1             -7.3209112858       27.9457199587        6.1521513371  MEOH      3131            0.0000000000
     48202      3823  MEOH      DC1            -7.3223910304       27.9589691797        6.1568048748  MEOH      3131            0.0000000000
     48203      3823  MEOH      O1             -8.6833388676       27.6082666799        5.8957109547  MEOH      3131            0.0000000000
     48204      3823  MEOH      DO1            -8.6860465318       27.6277770946        5.8881428408  MEOH      3131            0.0000000000
     48205      3823  MEOH      HO1            -9.2160083785       27.8507720666        6.6692446197  MEOH      3131            0.0000000000
     48206      3823  MEOH      HO2            -8.8872485810       27.8776100581        4.9864392827  MEOH      3131            0.0000000000
     48207      3823  MEOH      H1A            -6.6893692511       27.3516997917        5.4574458591  MEOH      3131            0.0000000000
     48208      3823  MEOH      H1B            -7.0301460419       27.6725536526        7.1890489901  MEOH      3131            0.0000000000
     48209      3823  MEOH      H1C            -7.1423044435       29.0265638359        5.9672267335  MEOH      3131            0.0000000000
     48210      3823  MEOH      LP1A           -8.8460779092       27.8767369040        5.7409862213  MEOH      3131            0.0000000000
     48211      3823  MEOH      LP1B           -8.7462759479       27.2792191724        5.9970354916  MEOH      3131            0.0000000000
     48212      3824  MEOH      C1            -33.1727222956       -8.4997164979      -21.7237847799  MEOH      3132            0.0000000000
     48213      3824  MEOH      DC1           -33.1767577081       -8.4991122135      -21.7232948508  MEOH      3132            0.0000000000
     48214      3824  MEOH      O1            -34.1179717179       -7.4829563816      -22.0515546013  MEOH      3132            0.0000000000
     48215      3824  MEOH      DO1           -34.1310097020       -7.4894421625      -22.0596362705  MEOH      3132            0.0000000000
     48216      3824  MEOH      HO1           -33.6542566297       -6.8589881713      -22.6316683749  MEOH      3132            0.0000000000
     48217      3824  MEOH      HO2           -34.9287247575       -7.9390850823      -22.3263747555  MEOH      3132            0.0000000000
     48218      3824  MEOH      H1A           -33.5442793555       -9.1010807780      -20.8666807287  MEOH      3132            0.0000000000
     48219      3824  MEOH      H1B           -32.2035564016       -8.0365974718      -21.4399551875  MEOH      3132            0.0000000000
     48220      3824  MEOH      H1C           -33.0225059162       -9.1658412722      -22.6001601711  MEOH      3132            0.0000000000
     48221      3824  MEOH      LP1A          -34.2966277876       -7.5736222283      -22.3385419059  MEOH      3132            0.0000000000
     48222      3824  MEOH      LP1B          -34.1058933389       -7.2269487716      -21.8131972720  MEOH      3132            0.0000000000
     48223      3825  MEOH      C1             10.7191056658       11.7806014378      -24.3061130014  MEOH      3133            0.0000000000
     48224      3825  MEOH      DC1            10.6918428571       11.7839501256      -24.3008430391  MEOH      3133            0.0000000000
     48225      3825  MEOH      O1              9.4427508291       11.2032898460      -24.6003963167  MEOH      3133            0.0000000000
     48226      3825  MEOH      DO1             9.4173927678       11.2180394719      -24.5912775745  MEOH      3133            0.0000000000
     48227      3825  MEOH      HO1             8.8857419492       11.2290136968      -23.8066839058  MEOH      3133            0.0000000000
     48228      3825  MEOH      HO2             9.1614098411       11.5451230748      -25.4634706433  MEOH      3133            0.0000000000
     48229      3825  MEOH      H1A            11.4340990018       11.5456692362      -25.1233720729  MEOH      3133            0.0000000000
     48230      3825  MEOH      H1B            11.1366583324       11.3568695317      -23.3678049261  MEOH      3133            0.0000000000
     48231      3825  MEOH      H1C            10.6289832705       12.8840837380      -24.2137779183  MEOH      3133            0.0000000000
     48232      3825  MEOH      LP1A            9.2245047272       11.4496658708      -24.7194235968  MEOH      3133            0.0000000000
     48233      3825  MEOH      LP1B            9.4508941344       10.8583964262      -24.5413860165  MEOH      3133            0.0000000000
     48234      3826  MEOH      C1            -13.7604915313       34.3033242302       12.3406201785  MEOH      3134            0.0000000000
     48235      3826  MEOH      DC1           -13.7674031682       34.2941059920       12.3289442893  MEOH      3134            0.0000000000
     48236      3826  MEOH      O1            -13.7722660697       34.1428044232       10.9226407920  MEOH      3134            0.0000000000
     48237      3826  MEOH      DO1           -13.7736433274       34.1310261049       10.9148651204  MEOH      3134            0.0000000000
     48238      3826  MEOH      HO1           -14.0193544391       35.0095288418       10.5639820108  MEOH      3134            0.0000000000
     48239      3826  MEOH      HO2           -12.9016644177       33.7768445051       10.7012224053  MEOH      3134            0.0000000000
     48240      3826  MEOH      H1A           -13.4705983889       33.3515669883       12.8350300497  MEOH      3134            0.0000000000
     48241      3826  MEOH      H1B           -14.7671057270       34.6052314356       12.7010378557  MEOH      3134            0.0000000000
     48242      3826  MEOH      H1C           -13.0237390539       35.0843641190       12.6260908059  MEOH      3134            0.0000000000
     48243      3826  MEOH      LP1A          -13.4544208305       34.2092093223       10.7920085091  MEOH      3134            0.0000000000
     48244      3826  MEOH      LP1B          -14.0890769218       34.0384591804       10.8166079939  MEOH      3134            0.0000000000
     48245      3827  MEOH      C1            -24.9914658494      -17.7865754225        8.9644868979  MEOH      3135            0.0000000000
     48246      3827  MEOH      DC1           -24.9781404152      -17.7810393128        8.9656774656  MEOH      3135            0.0000000000
     48247      3827  MEOH      O1            -25.5957940833      -18.3784253239        7.8125812749  MEOH      3135            0.0000000000
     48248      3827  MEOH      DO1           -25.5807336854      -18.3884134617        7.8081601062  MEOH      3135            0.0000000000
     48249      3827  MEOH      HO1           -24.9578896542      -19.0106252695        7.4461100371  MEOH      3135            0.0000000000
     48250      3827  MEOH      HO2           -26.4620612156      -18.6947694976        8.1132598743  MEOH      3135            0.0000000000
     48251      3827  MEOH      H1A           -25.7118202221      -17.0892020619        9.4431109400  MEOH      3135            0.0000000000
     48252      3827  MEOH      H1B           -24.0879691089      -17.2115780510        8.6688643954  MEOH      3135            0.0000000000
     48253      3827  MEOH      H1C           -24.7120806737      -18.5806145097        9.6895847203  MEOH      3135            0.0000000000
     48254      3827  MEOH      LP1A          -25.7781230975      -18.6623348946        7.9055946412  MEOH      3135            0.0000000000
     48255      3827  MEOH      LP1B          -25.5241163432      -18.1873068786        7.5282644772  MEOH      3135            0.0000000000
     48256      3828  MEOH      C1             36.3783853521       22.0094759443       16.9969832937  MEOH      3136            0.0000000000
     48257      3828  MEOH      DC1            36.3593679066       22.0051225701       17.0044905668  MEOH      3136            0.0000000000
     48258      3828  MEOH      O1             35.4197059943       20.9483576447       17.0240400503  MEOH      3136            0.0000000000
     48259      3828  MEOH      DO1            35.4061799095       20.9463256364       17.0313888182  MEOH      3136            0.0000000000
     48260      3828  MEOH      HO1            35.3909359891       20.6009053656       17.9292191489  MEOH      3136            0.0000000000
     48261      3828  MEOH      HO2            34.6251938155       21.2855210265       16.5813536460  MEOH      3136            0.0000000000
     48262      3828  MEOH      H1A            36.6146108081       22.2797125452       15.9455601078  MEOH      3136            0.0000000000
     48263      3828  MEOH      H1B            37.3207019475       21.6964338791       17.4953457135  MEOH      3136            0.0000000000
     48264      3828  MEOH      H1C            35.9665897157       22.9075056908       17.5052036477  MEOH      3136            0.0000000000
     48265      3828  MEOH      LP1A           35.1018519657       21.0760050349       17.0959772469  MEOH      3136            0.0000000000
     48266      3828  MEOH      LP1B           35.5749981469       20.6446977793       16.9454586689  MEOH      3136            0.0000000000
     48267      3829  MEOH      C1             23.1566375830      -10.3666187577      -18.7074209019  MEOH      3137            0.0000000000
     48268      3829  MEOH      DC1            23.1474818503      -10.3692651945      -18.6936758794  MEOH      3137            0.0000000000
     48269      3829  MEOH      O1             23.8184379356      -11.5365662972      -19.1920687386  MEOH      3137            0.0000000000
     48270      3829  MEOH      DO1            23.8094630500      -11.5334879127      -19.1742016100  MEOH      3137            0.0000000000
     48271      3829  MEOH      HO1            24.5562640490      -11.7771599131      -18.6101517861  MEOH      3137            0.0000000000
     48272      3829  MEOH      HO2            23.1368234543      -12.1654257345      -19.4763881136  MEOH      3137            0.0000000000
     48273      3829  MEOH      H1A            22.5671360716       -9.9116340900      -19.5319194899  MEOH      3137            0.0000000000
     48274      3829  MEOH      H1B            23.9000902168       -9.6182026796      -18.3588917700  MEOH      3137            0.0000000000
     48275      3829  MEOH      H1C            22.4639799058      -10.6256628794      -17.8782993878  MEOH      3137            0.0000000000
     48276      3829  MEOH      LP1A           23.6680922739      -11.8230838618      -19.0586376059  MEOH      3137            0.0000000000
     48277      3829  MEOH      LP1B           24.0723423842      -11.4465724602      -19.4155271023  MEOH      3137            0.0000000000
     48278      3830  MEOH      C1             11.8486061623      -34.2478820892        4.6504547409  MEOH      3138            0.0000000000
     48279      3830  MEOH      DC1            11.8564884017      -34.2389842980        4.6504736459  MEOH      3138            0.0000000000
     48280      3830  MEOH      O1             10.5821444975      -34.3963644469        4.0111512714  MEOH      3138            0.0000000000
     48281      3830  MEOH      DO1            10.5867609788      -34.3934510708        4.0166279095  MEOH      3138            0.0000000000
     48282      3830  MEOH      HO1             9.9000980424      -34.0713597197        4.6194970293  MEOH      3138            0.0000000000
     48283      3830  MEOH      HO2            10.6809431795      -34.0075051283        3.1280163719  MEOH      3138            0.0000000000
     48284      3830  MEOH      H1A            12.6202309093      -34.7363943450        4.0177841900  MEOH      3138            0.0000000000
     48285      3830  MEOH      H1B            11.8419673314      -34.7489867212        5.6420045760  MEOH      3138            0.0000000000
     48286      3830  MEOH      H1C            12.1161549339      -33.1747774609        4.7562144311  MEOH      3138            0.0000000000
     48287      3830  MEOH      LP1A           10.5077954911      -34.1096152332        3.8247454945  MEOH      3138            0.0000000000
     48288      3830  MEOH      LP1B           10.4491094216      -34.7124660251        4.0810187231  MEOH      3138            0.0000000000
     48289      3831  MEOH      C1             28.3636321596      -17.7383836184       36.2213111389  MEOH      3139            0.0000000000
     48290      3831  MEOH      DC1            28.3723287155      -17.7313130127       36.2113047504  MEOH      3139            0.0000000000
     48291      3831  MEOH      O1             27.1692416532      -17.9312215734       36.9804144657  MEOH      3139            0.0000000000
     48292      3831  MEOH      DO1            27.1791714099      -17.9322730338       36.9614284307  MEOH      3139            0.0000000000
     48293      3831  MEOH      HO1            26.3883576358      -17.6918626565       36.4571292086  MEOH      3139            0.0000000000
     48294      3831  MEOH      HO2            27.2514026038      -18.7893156903       37.4251886395  MEOH      3139            0.0000000000
     48295      3831  MEOH      H1A            29.2376384952      -17.7919423337       36.9050986713  MEOH      3139            0.0000000000
     48296      3831  MEOH      H1B            28.3511811180      -16.7414644159       35.7310886614  MEOH      3139            0.0000000000
     48297      3831  MEOH      H1C            28.4644464237      -18.5493365791       35.4686407062  MEOH      3139            0.0000000000
     48298      3831  MEOH      LP1A           27.0517681368      -18.2581478014       36.9377622164  MEOH      3139            0.0000000000
     48299      3831  MEOH      LP1B           27.0927613725      -17.6402325867       37.1592333020  MEOH      3139            0.0000000000
     48300      3832  MEOH      C1              0.2679300666      -20.2880301384      -29.9853693044  MEOH      3140            0.0000000000
     48301      3832  MEOH      DC1             0.2775045661      -20.2966974007      -29.9888921021  MEOH      3140            0.0000000000
     48302      3832  MEOH      O1             -0.7386521882      -19.5560875418      -29.2815223536  MEOH      3140            0.0000000000
     48303      3832  MEOH      DO1            -0.7376188670      -19.5688859712      -29.2844641697  MEOH      3140            0.0000000000
     48304      3832  MEOH      HO1            -0.6802237777      -18.6286033832      -29.5594778472  MEOH      3140            0.0000000000
     48305      3832  MEOH      HO2            -1.5652688521      -20.0478412897      -29.4071533383  MEOH      3140            0.0000000000
     48306      3832  MEOH      H1A             0.2859555935      -21.3353624603      -29.6151111671  MEOH      3140            0.0000000000
     48307      3832  MEOH      H1B             1.2650000527      -19.8243028099      -29.8268467265  MEOH      3140            0.0000000000
     48308      3832  MEOH      H1C             0.0540867714      -20.2829392157      -31.0755831040  MEOH      3140            0.0000000000
     48309      3832  MEOH      LP1A           -1.0378392933      -19.5590666419      -29.4631213655  MEOH      3140            0.0000000000
     48310      3832  MEOH      LP1B           -0.6113364076      -19.4401891710      -28.9767958210  MEOH      3140            0.0000000000
     48311      3833  MEOH      C1             35.4302397944      -17.5974748877       26.4249094668  MEOH      3141            0.0000000000
     48312      3833  MEOH      DC1            35.4133241584      -17.5824885542       26.4271907698  MEOH      3141            0.0000000000
     48313      3833  MEOH      O1             36.6280238777      -18.3488452071       26.6112061145  MEOH      3141            0.0000000000
     48314      3833  MEOH      DO1            36.6160259948      -18.3404077677       26.6190112861  MEOH      3141            0.0000000000
     48315      3833  MEOH      HO1            36.9612321901      -18.6207404350       25.7417550201  MEOH      3141            0.0000000000
     48316      3833  MEOH      HO2            37.1867657416      -17.8473802740       27.2254051467  MEOH      3141            0.0000000000
     48317      3833  MEOH      H1A            34.9892440073      -17.3962383635       27.4245832024  MEOH      3141            0.0000000000
     48318      3833  MEOH      H1B            34.7046230704      -18.1882757456       25.8259472676  MEOH      3141            0.0000000000
     48319      3833  MEOH      H1C            35.6554663496      -16.6379306090       25.9122021644  MEOH      3141            0.0000000000
     48320      3833  MEOH      LP1A           36.9046653815      -18.1344540285       26.6136352896  MEOH      3141            0.0000000000
     48321      3833  MEOH      LP1B           36.5515426103      -18.6880118102       26.6514134656  MEOH      3141            0.0000000000
     48322      3834  MEOH      C1            -18.6798569877      -20.8472876457      -36.1527411745  MEOH      3142            0.0000000000
     48323      3834  MEOH      DC1           -18.6878153012      -20.8462899336      -36.1351965351  MEOH      3142            0.0000000000
     48324      3834  MEOH      O1            -19.6660463902      -20.6777057024      -37.1652829706  MEOH      3142            0.0000000000
     48325      3834  MEOH      DO1           -19.6976714318      -20.6661379872      -37.1366938417  MEOH      3142            0.0000000000
     48326      3834  MEOH      HO1           -20.4460041580      -21.2165959785      -36.9599462924  MEOH      3142            0.0000000000
     48327      3834  MEOH      HO2           -19.6972628765      -19.7312188666      -37.3752548750  MEOH      3142            0.0000000000
     48328      3834  MEOH      H1A           -17.7017047039      -20.4468461793      -36.4950652046  MEOH      3142            0.0000000000
     48329      3834  MEOH      H1B           -18.5612041415      -21.9200954561      -35.8894430440  MEOH      3142            0.0000000000
     48330      3834  MEOH      H1C           -19.0096657371      -20.2458290043      -35.2787876906  MEOH      3142            0.0000000000
     48331      3834  MEOH      LP1A          -19.8748744842      -20.4085168521      -37.0851069766  MEOH      3142            0.0000000000
     48332      3834  MEOH      LP1B          -19.6161349621      -20.9110972057      -37.4212854228  MEOH      3142            0.0000000000
     48333      3835  MEOH      C1            -15.0597677361       26.4506781415       -0.6011629257  MEOH      3143            0.0000000000
     48334      3835  MEOH      DC1           -15.0566769604       26.4563630194       -0.5918583637  MEOH      3143            0.0000000000
     48335      3835  MEOH      O1            -15.0322226588       25.1850782725        0.0603062779  MEOH      3143            0.0000000000
     48336      3835  MEOH      DO1           -15.0323984244       25.1888325667        0.0706877177  MEOH      3143            0.0000000000
     48337      3835  MEOH      HO1           -15.1299235925       24.5069557745       -0.6263555070  MEOH      3143            0.0000000000
     48338      3835  MEOH      HO2           -14.2505966960       25.1983465475        0.6345752107  MEOH      3143            0.0000000000
     48339      3835  MEOH      H1A           -15.0407895583       27.2602936381        0.1594181526  MEOH      3143            0.0000000000
     48340      3835  MEOH      H1B           -15.9838747021       26.5435882646       -1.2108472904  MEOH      3143            0.0000000000
     48341      3835  MEOH      H1C           -14.1766258877       26.5517174203       -1.2676256335  MEOH      3143            0.0000000000
     48342      3835  MEOH      LP1A          -14.7025304852       25.0703245680        0.0854986971  MEOH      3143            0.0000000000
     48343      3835  MEOH      LP1B          -15.3560225902       25.0929964877        0.1560901456  MEOH      3143            0.0000000000
     48344      3836  MEOH      C1             -1.6700655082      -13.9575729947        2.3324391575  MEOH      3144            0.0000000000
     48345      3836  MEOH      DC1            -1.6745755372      -13.9678043303        2.3220445665  MEOH      3144            0.0000000000
     48346      3836  MEOH      O1             -0.5475251505      -13.6706189813        3.1671670232  MEOH      3144            0.0000000000
     48347      3836  MEOH      DO1            -0.5571311668      -13.6850038947        3.1619015176  MEOH      3144            0.0000000000
     48348      3836  MEOH      HO1            -0.7260232000      -12.8843762540        3.7064821642  MEOH      3144            0.0000000000
     48349      3836  MEOH      HO2            -0.2214526780      -14.5041748154        3.5410138023  MEOH      3144            0.0000000000
     48350      3836  MEOH      H1A            -1.3348801563      -14.6203441831        1.5061788280  MEOH      3144            0.0000000000
     48351      3836  MEOH      H1B            -2.0802548697      -13.0231503293        1.8932125984  MEOH      3144            0.0000000000
     48352      3836  MEOH      H1C            -2.4610825024      -14.4637916538        2.9260347988  MEOH      3144            0.0000000000
     48353      3836  MEOH      LP1A           -0.5774190452      -13.8417758460        3.4709954004  MEOH      3144            0.0000000000
     48354      3836  MEOH      LP1B           -0.3238839637      -13.4604165987        2.9989422394  MEOH      3144            0.0000000000
     48355      3837  MEOH      C1             25.8930488461       31.5316281908      -18.1785623169  MEOH      3145            0.0000000000
     48356      3837  MEOH      DC1            25.8912396649       31.5491873301      -18.1839643420  MEOH      3145            0.0000000000
     48357      3837  MEOH      O1             25.4174346843       30.2511798393      -17.7736816335  MEOH      3145            0.0000000000
     48358      3837  MEOH      DO1            25.4244252983       30.2684668446      -17.7709345807  MEOH      3145            0.0000000000
     48359      3837  MEOH      HO1            25.9778170083       29.8783120705      -17.0752252799  MEOH      3145            0.0000000000
     48360      3837  MEOH      HO2            24.4519494770       30.3074113086      -17.6990067576  MEOH      3145            0.0000000000
     48361      3837  MEOH      H1A            25.3216475972       31.8537855607      -19.0752429971  MEOH      3145            0.0000000000
     48362      3837  MEOH      H1B            26.9684841419       31.4690764161      -18.4503107297  MEOH      3145            0.0000000000
     48363      3837  MEOH      H1C            25.7453457261       32.2654891850      -17.3576160147  MEOH      3145            0.0000000000
     48364      3837  MEOH      LP1A           25.1837981670       30.2864189319      -17.5154720595  MEOH      3145            0.0000000000
     48365      3837  MEOH      LP1B           25.5625781841       30.0015410865      -17.9714538702  MEOH      3145            0.0000000000
     48366      3838  MEOH      C1              1.2109492921        9.6665321218       30.7815350223  MEOH      3146            0.0000000000
     48367      3838  MEOH      DC1             1.2188113693        9.6890575735       30.7761852170  MEOH      3146            0.0000000000
     48368      3838  MEOH      O1              0.4656149457       10.8740652262       30.6305007983  MEOH      3146            0.0000000000
     48369      3838  MEOH      DO1             0.4616387333       10.8927837110       30.6327303679  MEOH      3146            0.0000000000
     48370      3838  MEOH      HO1             1.1051506142       11.5971719193       30.5355753509  MEOH      3146            0.0000000000
     48371      3838  MEOH      HO2            -0.2237541310       10.6989476345       29.9709523882  MEOH      3146            0.0000000000
     48372      3838  MEOH      H1A             0.5303099741        8.8427416100       31.0855421144  MEOH      3146            0.0000000000
     48373      3838  MEOH      H1B             1.9809492187        9.7945535116       31.5721244460  MEOH      3146            0.0000000000
     48374      3838  MEOH      H1C             1.6916364634        9.3918768610       29.8182981184  MEOH      3146            0.0000000000
     48375      3838  MEOH      LP1A            0.3968520097       10.9307567713       30.2920370227  MEOH      3146            0.0000000000
     48376      3838  MEOH      LP1B            0.3995445975       11.0140172046       30.9444245993  MEOH      3146            0.0000000000
     48377      3839  MEOH      C1            -31.7008859159        9.0849538558      -22.7246299853  MEOH      3147            0.0000000000
     48378      3839  MEOH      DC1           -31.7137155657        9.0645431293      -22.7172827341  MEOH      3147            0.0000000000
     48379      3839  MEOH      O1            -32.1222726748        7.7498393384      -22.4291389046  MEOH      3147            0.0000000000
     48380      3839  MEOH      DO1           -32.1402483675        7.7439684301      -22.4178951453  MEOH      3147            0.0000000000
     48381      3839  MEOH      HO1           -32.3839967903        7.3596334261      -23.2777494356  MEOH      3147            0.0000000000
     48382      3839  MEOH      HO2           -31.3832119913        7.3497328659      -21.9447794129  MEOH      3147            0.0000000000
     48383      3839  MEOH      H1A           -31.3375169760        9.5840748206      -21.8009621468  MEOH      3147            0.0000000000
     48384      3839  MEOH      H1B           -32.5462700609        9.6720183381      -23.1429623211  MEOH      3147            0.0000000000
     48385      3839  MEOH      H1C           -30.8696647428        9.0712711913      -23.4616545078  MEOH      3147            0.0000000000
     48386      3839  MEOH      LP1A          -31.8488612217        7.5318665347      -22.4444370808  MEOH      3147            0.0000000000
     48387      3839  MEOH      LP1B          -32.4639332788        7.7461697320      -22.3532800510  MEOH      3147            0.0000000000
     48388      3840  MEOH      C1            -22.4996896776        6.7249253219       -3.0213068866  MEOH      3148            0.0000000000
     48389      3840  MEOH      DC1           -22.5057143788        6.7170919970       -3.0122500686  MEOH      3148            0.0000000000
     48390      3840  MEOH      O1            -23.3097990597        7.1267677838       -1.9161665265  MEOH      3148            0.0000000000
     48391      3840  MEOH      DO1           -23.3186272755        7.1124669634       -1.8977375139  MEOH      3148            0.0000000000
     48392      3840  MEOH      HO1           -24.0440569180        7.6158433309       -2.3193668574  MEOH      3148            0.0000000000
     48393      3840  MEOH      HO2           -23.4457182628        6.3353219771       -1.3720714003  MEOH      3148            0.0000000000
     48394      3840  MEOH      H1A           -21.5347379216        6.3059530002       -2.6640236619  MEOH      3148            0.0000000000
     48395      3840  MEOH      H1B           -22.2735838921        7.5972317403       -3.6711366229  MEOH      3148            0.0000000000
     48396      3840  MEOH      H1C           -23.0507256740        5.9734082172       -3.6262055339  MEOH      3148            0.0000000000
     48397      3840  MEOH      LP1A          -23.5463009018        6.8788542951       -1.8447117800  MEOH      3148            0.0000000000
     48398      3840  MEOH      LP1B          -23.2018257028        7.4369098732       -1.7951143124  MEOH      3148            0.0000000000
     48399      3841  MEOH      C1            -14.2555186353       -6.5771259845       34.6010547332  MEOH      3149            0.0000000000
     48400      3841  MEOH      DC1           -14.2452276587       -6.6075155573       34.6269436651  MEOH      3149            0.0000000000
     48401      3841  MEOH      O1            -14.5660632586       -7.6956123038       35.4361673954  MEOH      3149            0.0000000000
     48402      3841  MEOH      DO1           -14.5601025456       -7.7168091511       35.4485583464  MEOH      3149            0.0000000000
     48403      3841  MEOH      HO1           -14.0284198233       -7.5942023339       36.2371390269  MEOH      3149            0.0000000000
     48404      3841  MEOH      HO2           -15.5330924498       -7.6879274922       35.5116358502  MEOH      3149            0.0000000000
     48405      3841  MEOH      H1A           -14.8377717519       -6.6433401269       33.6571702087  MEOH      3149            0.0000000000
     48406      3841  MEOH      H1B           -13.1749146552       -6.5503079924       34.3443509435  MEOH      3149            0.0000000000
     48407      3841  MEOH      H1C           -14.5287177663       -5.6254490234       35.1050331030  MEOH      3149            0.0000000000
     48408      3841  MEOH      LP1A          -14.8378967153       -7.6188672622       35.6428477534  MEOH      3149            0.0000000000
     48409      3841  MEOH      LP1B          -14.3535781287       -7.9634888744       35.3613862978  MEOH      3149            0.0000000000
     48410      3842  MEOH      C1            -26.7358354925        0.2583977860       35.8389288583  MEOH      3150            0.0000000000
     48411      3842  MEOH      DC1           -26.7379438460        0.2565653976       35.8374385278  MEOH      3150            0.0000000000
     48412      3842  MEOH      O1            -25.8576015517        1.0071192106       36.6630798874  MEOH      3150            0.0000000000
     48413      3842  MEOH      DO1           -25.8651981959        1.0072450293       36.6574760890  MEOH      3150            0.0000000000
     48414      3842  MEOH      HO1           -26.3093438499        1.2041709949       37.4985435257  MEOH      3150            0.0000000000
     48415      3842  MEOH      HO2           -25.0368640254        0.4904685031       36.6821051135  MEOH      3150            0.0000000000
     48416      3842  MEOH      H1A           -26.2336312893        0.0727649077       34.8654544752  MEOH      3150            0.0000000000
     48417      3842  MEOH      H1B           -27.6762444898        0.8228141478       35.6617676638  MEOH      3150            0.0000000000
     48418      3842  MEOH      H1C           -26.9654834708       -0.7184080906       36.3158283084  MEOH      3150            0.0000000000
     48419      3842  MEOH      LP1A          -25.6626164600        0.7910928078       36.8575365851  MEOH      3150            0.0000000000
     48420      3842  MEOH      LP1B          -25.8962822163        1.3491290780       36.5995735349  MEOH      3150            0.0000000000
     48421      3843  MEOH      C1              8.4612481863       35.5284564120      -16.4535652116  MEOH      3151            0.0000000000
     48422      3843  MEOH      DC1             8.4754918635       35.5615350897      -16.4617676952  MEOH      3151            0.0000000000
     48423      3843  MEOH      O1              8.1337673957       34.1445263978      -16.4793787806  MEOH      3151            0.0000000000
     48424      3843  MEOH      DO1             8.1460576865       34.1764455204      -16.4848828075  MEOH      3151            0.0000000000
     48425      3843  MEOH      HO1             8.8902114156       33.6194215414      -16.7842678354  MEOH      3151            0.0000000000
     48426      3843  MEOH      HO2             7.7683013137       33.9538438292      -15.6013271301  MEOH      3151            0.0000000000
     48427      3843  MEOH      H1A             7.5570912532       36.1010531065      -16.1553131916  MEOH      3151            0.0000000000
     48428      3843  MEOH      H1B             8.7888382852       35.8419879587      -17.4678155243  MEOH      3151            0.0000000000
     48429      3843  MEOH      H1C             9.2653166888       35.7184855292      -15.7108110275  MEOH      3151            0.0000000000
     48430      3843  MEOH      LP1A            8.2049525733       33.9988629691      -16.1691936166  MEOH      3151            0.0000000000
     48431      3843  MEOH      LP1B            7.9968962004       34.0596775151      -16.7901310019  MEOH      3151            0.0000000000
     48432      3844  MEOH      C1              3.8494002729      -27.4225363164        8.3991982903  MEOH      3152            0.0000000000
     48433      3844  MEOH      DC1             3.8423320345      -27.4139022626        8.4120520182  MEOH      3152            0.0000000000
     48434      3844  MEOH      O1              2.5233491058      -27.7471472006        8.7793484980  MEOH      3152            0.0000000000
     48435      3844  MEOH      DO1             2.5166038086      -27.7316530013        8.7895551846  MEOH      3152            0.0000000000
     48436      3844  MEOH      HO1             1.9481729979      -27.2470762999        8.1793472153  MEOH      3152            0.0000000000
     48437      3844  MEOH      HO2             2.4905595704      -28.7156622263        8.7368809535  MEOH      3152            0.0000000000
     48438      3844  MEOH      H1A             4.5436297462      -28.0149068305        9.0328098531  MEOH      3152            0.0000000000
     48439      3844  MEOH      H1B             4.0522566274      -26.3410863154        8.5529389691  MEOH      3152            0.0000000000
     48440      3844  MEOH      H1C             4.0236951587      -27.6806181688        7.3327387033  MEOH      3152            0.0000000000
     48441      3844  MEOH      LP1A            2.4145206502      -28.0300714790        8.6043907319  MEOH      3152            0.0000000000
     48442      3844  MEOH      LP1B            2.4122021057      -27.5259510128        9.0267724073  MEOH      3152            0.0000000000
     48443      3845  MEOH      C1             -3.3239615155       24.5994438977      -27.5693191082  MEOH      3153            0.0000000000
     48444      3845  MEOH      DC1            -3.3231253385       24.5952512913      -27.5635654290  MEOH      3153            0.0000000000
     48445      3845  MEOH      O1             -2.3460649142       23.7252073541      -27.0134323583  MEOH      3153            0.0000000000
     48446      3845  MEOH      DO1            -2.3411746889       23.7279028329      -27.0144541883  MEOH      3153            0.0000000000
     48447      3845  MEOH      HO1            -2.1558747782       23.0323181734      -27.6650705218  MEOH      3153            0.0000000000
     48448      3845  MEOH      HO2            -1.6358446961       24.2960543923      -26.6808351532  MEOH      3153            0.0000000000
     48449      3845  MEOH      H1A            -3.5579724746       25.4098652761      -26.8462858715  MEOH      3153            0.0000000000
     48450      3845  MEOH      H1B            -4.2562215019       24.0342038086      -27.7831320159  MEOH      3153            0.0000000000
     48451      3845  MEOH      H1C            -2.9396703144       25.0623465509      -28.5033225390  MEOH      3153            0.0000000000
     48452      3845  MEOH      LP1A           -2.0247300045       23.8409207011      -27.0899457372  MEOH      3153            0.0000000000
     48453      3845  MEOH      LP1B           -2.5028526987       23.4688998561      -26.8339217539  MEOH      3153            0.0000000000
     48454      3846  MEOH      C1            -36.4595595059       -5.0336969243       11.9491922890  MEOH      3154            0.0000000000
     48455      3846  MEOH      DC1           -36.4549709182       -5.0319459085       11.9443773886  MEOH      3154            0.0000000000
     48456      3846  MEOH      O1            -36.9983827804       -5.9443986897       10.9883497587  MEOH      3154            0.0000000000
     48457      3846  MEOH      DO1           -36.9981823624       -5.9467639630       10.9853562708  MEOH      3154            0.0000000000
     48458      3846  MEOH      HO1           -36.3852222470       -5.9744972613       10.2373316256  MEOH      3154            0.0000000000
     48459      3846  MEOH      HO2           -37.2185786289       -6.7520749350       11.4783220767  MEOH      3154            0.0000000000
     48460      3846  MEOH      H1A           -37.1875289115       -4.8954251810       12.7769981058  MEOH      3154            0.0000000000
     48461      3846  MEOH      H1B           -36.2736721910       -4.0472009461       11.4731748616  MEOH      3154            0.0000000000
     48462      3846  MEOH      H1C           -35.5133116890       -5.4361994054       12.3698201807  MEOH      3154            0.0000000000
     48463      3846  MEOH      LP1A          -36.8850294944       -6.2689041426       11.0542833892  MEOH      3154            0.0000000000
     48464      3846  MEOH      LP1B          -37.2109735334       -5.7743819149       10.7683509677  MEOH      3154            0.0000000000
     48465      3847  MEOH      C1             36.8965502646       14.4228948612      -16.4992916004  MEOH      3155            0.0000000000
     48466      3847  MEOH      DC1            36.8812514547       14.4130593329      -16.4984024199  MEOH      3155            0.0000000000
     48467      3847  MEOH      O1             37.0910990871       15.7042908073      -15.8941307565  MEOH      3155            0.0000000000
     48468      3847  MEOH      DO1            37.0836033736       15.6995598046      -15.8972420965  MEOH      3155            0.0000000000
     48469      3847  MEOH      HO1            37.0905421604       16.3677846522      -16.6017151032  MEOH      3155            0.0000000000
     48470      3847  MEOH      HO2            36.4665105888       15.7674402168      -15.1546705745  MEOH      3155            0.0000000000
     48471      3847  MEOH      H1A            36.9996739084       13.6353557682      -15.7224591266  MEOH      3155            0.0000000000
     48472      3847  MEOH      H1B            37.6507768254       14.2374379475      -17.2936901330  MEOH      3155            0.0000000000
     48473      3847  MEOH      H1C            35.8851643128       14.3827286048      -16.9573375899  MEOH      3155            0.0000000000
     48474      3847  MEOH      LP1A           36.7821682197       15.8432117460      -15.8060246165  MEOH      3155            0.0000000000
     48475      3847  MEOH      LP1B           37.4330979635       15.7748840410      -15.8706070683  MEOH      3155            0.0000000000
     48476      3848  MEOH      C1            -15.0557735365        0.0187443986      -23.9016578335  MEOH      3156            0.0000000000
     48477      3848  MEOH      DC1           -15.0545734990        0.0164260882      -23.9032229529  MEOH      3156            0.0000000000
     48478      3848  MEOH      O1            -15.1037523386       -1.2338559597      -23.2093431914  MEOH      3156            0.0000000000
     48479      3848  MEOH      DO1           -15.1050402991       -1.2368827721      -23.2058755128  MEOH      3156            0.0000000000
     48480      3848  MEOH      HO1           -14.9270807425       -1.9279526572      -23.8634967842  MEOH      3156            0.0000000000
     48481      3848  MEOH      HO2           -14.5180219526       -1.1353919342      -22.4424502715  MEOH      3156            0.0000000000
     48482      3848  MEOH      H1A           -15.1972684255        0.8516255119      -23.1801252649  MEOH      3156            0.0000000000
     48483      3848  MEOH      H1B           -15.8547431093        0.0664168851      -24.6721745159  MEOH      3156            0.0000000000
     48484      3848  MEOH      H1C           -14.0713845803        0.1407024692      -24.4020832652  MEOH      3156            0.0000000000
     48485      3848  MEOH      LP1A          -14.7869626212       -1.3132929181      -23.0835097913  MEOH      3156            0.0000000000
     48486      3848  MEOH      LP1B          -15.4308692363       -1.3583326899      -23.2096239844  MEOH      3156            0.0000000000
     48487      3849  MEOH      C1             36.3847907181      -30.5908392451       19.7636912332  MEOH      3157            0.0000000000
     48488      3849  MEOH      DC1            36.3832738263      -30.6042819410       19.7650541997  MEOH      3157            0.0000000000
     48489      3849  MEOH      O1             35.5158570227      -31.5832984271       20.3180083012  MEOH      3157            0.0000000000
     48490      3849  MEOH      DO1            35.5125294191      -31.5911812837       20.3200605778  MEOH      3157            0.0000000000
     48491      3849  MEOH      HO1            35.7599321952      -32.4334095870       19.9197140298  MEOH      3157            0.0000000000
     48492      3849  MEOH      HO2            35.5573960349      -31.4659839527       21.2799915778  MEOH      3157            0.0000000000
     48493      3849  MEOH      H1A            36.0798848387      -29.5848939493       20.1234515264  MEOH      3157            0.0000000000
     48494      3849  MEOH      H1B            36.3240393945      -30.5979498079       18.6543762564  MEOH      3157            0.0000000000
     48495      3849  MEOH      H1C            37.4330598635      -30.7816953127       20.0783764097  MEOH      3157            0.0000000000
     48496      3849  MEOH      LP1A           35.6555082567      -31.7145851783       20.6108586414  MEOH      3157            0.0000000000
     48497      3849  MEOH      LP1B           35.2256270161      -31.6100092148       20.1242221379  MEOH      3157            0.0000000000
     48498      3850  MEOH      C1             25.1027522638      -17.0915894040      -17.1715631905  MEOH      3158            0.0000000000
     48499      3850  MEOH      DC1            25.0882768912      -17.0799109353      -17.1439959688  MEOH      3158            0.0000000000
     48500      3850  MEOH      O1             25.8173310442      -17.2072244728      -18.3960433457  MEOH      3158            0.0000000000
     48501      3850  MEOH      DO1            25.8076494487      -17.1933713367      -18.3748089883  MEOH      3158            0.0000000000
     48502      3850  MEOH      HO1            26.7225652252      -16.8806859281      -18.2742909046  MEOH      3158            0.0000000000
     48503      3850  MEOH      HO2            25.6780530530      -18.1194926484      -18.6948215525  MEOH      3158            0.0000000000
     48504      3850  MEOH      H1A            24.0586242685      -17.4332538447      -17.3370417131  MEOH      3158            0.0000000000
     48505      3850  MEOH      H1B            25.1048287477      -16.0299977234      -16.8439356678  MEOH      3158            0.0000000000
     48506      3850  MEOH      H1C            25.5806908135      -17.7363732969      -16.4033513224  MEOH      3158            0.0000000000
     48507      3850  MEOH      LP1A           25.9703234528      -17.5213723538      -18.4161538337  MEOH      3158            0.0000000000
     48508      3850  MEOH      LP1B           25.7752865387      -16.9169684772      -18.5870504571  MEOH      3158            0.0000000000
     48509      3851  MEOH      C1             -9.1311233782        7.3690514080       29.5424151670  MEOH      3159            0.0000000000
     48510      3851  MEOH      DC1            -9.1336479746        7.3805029742       29.5434824239  MEOH      3159            0.0000000000
     48511      3851  MEOH      O1             -7.7423523764        7.5412088559       29.2779935613  MEOH      3159            0.0000000000
     48512      3851  MEOH      DO1            -7.7459959628        7.5507862944       29.2841640804  MEOH      3159            0.0000000000
     48513      3851  MEOH      HO1            -7.5583260854        8.4732121280       29.0820236023  MEOH      3159            0.0000000000
     48514      3851  MEOH      HO2            -7.2542766160        7.0407570567       29.9504740812  MEOH      3159            0.0000000000
     48515      3851  MEOH      H1A            -9.3684021855        6.2837521552       29.5544692198  MEOH      3159            0.0000000000
     48516      3851  MEOH      H1B            -9.7302348890        7.8492335357       28.7394135967  MEOH      3159            0.0000000000
     48517      3851  MEOH      H1C            -9.3862212552        7.8016354432       30.5334333950  MEOH      3159            0.0000000000
     48518      3851  MEOH      LP1A           -7.5709502467        7.6066108740       29.5760604765  MEOH      3159            0.0000000000
     48519      3851  MEOH      LP1B           -7.6785756357        7.4935244976       28.9371728910  MEOH      3159            0.0000000000
     48520      3852  MEOH      C1             18.0101966728        6.5974714251       13.5586375294  MEOH      3160            0.0000000000
     48521      3852  MEOH      DC1            18.0097243965        6.6016785723       13.5410590092  MEOH      3160            0.0000000000
     48522      3852  MEOH      O1             17.2064977408        5.6621611768       14.2775820102  MEOH      3160            0.0000000000
     48523      3852  MEOH      DO1            17.2167354546        5.6650256649       14.2671754390  MEOH      3160            0.0000000000
     48524      3852  MEOH      HO1            16.3318066056        5.6025273720       13.8625407725  MEOH      3160            0.0000000000
     48525      3852  MEOH      HO2            17.7524217607        4.8712410865       14.4091585098  MEOH      3160            0.0000000000
     48526      3852  MEOH      H1A            18.9584510066        6.7513969907       14.1167070937  MEOH      3160            0.0000000000
     48527      3852  MEOH      H1B            17.4836258930        7.5729938254       13.4851510506  MEOH      3160            0.0000000000
     48528      3852  MEOH      H1C            18.2590829123        6.2067082482       12.5488450853  MEOH      3160            0.0000000000
     48529      3852  MEOH      LP1A           17.2519996500        5.3404146436       14.1475483812  MEOH      3160            0.0000000000
     48530      3852  MEOH      LP1B           17.0348961092        5.8251327215       14.5354446784  MEOH      3160            0.0000000000
     48531      3853  MEOH      C1            -15.8260847997       -3.1489030319       27.7990069358  MEOH      3161            0.0000000000
     48532      3853  MEOH      DC1           -15.8238502122       -3.1645034186       27.8040252177  MEOH      3161            0.0000000000
     48533      3853  MEOH      O1            -15.0262639549       -2.2483660730       27.0372925993  MEOH      3161            0.0000000000
     48534      3853  MEOH      DO1           -15.0300120038       -2.2575117137       27.0589448251  MEOH      3161            0.0000000000
     48535      3853  MEOH      HO1           -15.5436714267       -1.8474418867       26.3214369539  MEOH      3161            0.0000000000
     48536      3853  MEOH      HO2           -14.5243480090       -1.7019316845       27.6621044459  MEOH      3161            0.0000000000
     48537      3853  MEOH      H1A           -15.1600071252       -3.7335709433       28.4689509376  MEOH      3161            0.0000000000
     48538      3853  MEOH      H1B           -16.3646894958       -3.8436412746       27.1196213637  MEOH      3161            0.0000000000
     48539      3853  MEOH      H1C           -16.5602638407       -2.5870110443       28.4151071973  MEOH      3161            0.0000000000
     48540      3853  MEOH      LP1A          -15.0409491625       -1.9277681134       27.1769396291  MEOH      3161            0.0000000000
     48541      3853  MEOH      LP1B          -14.8681994470       -2.4199868618       26.7764058112  MEOH      3161            0.0000000000
     48542      3854  MEOH      C1            -25.1454211057       32.1200404898       33.2936389959  MEOH      3162            0.0000000000
     48543      3854  MEOH      DC1           -25.1372070725       32.1084473050       33.2870569212  MEOH      3162            0.0000000000
     48544      3854  MEOH      O1            -25.0697199140       30.9974773402       34.1771525440  MEOH      3162            0.0000000000
     48545      3854  MEOH      DO1           -25.0590595928       30.9904751409       34.1711844318  MEOH      3162            0.0000000000
     48546      3854  MEOH      HO1           -25.9474427952       30.5855599986       34.2059040228  MEOH      3162            0.0000000000
     48547      3854  MEOH      HO2           -24.2815346855       30.4931780454       33.9215233835  MEOH      3162            0.0000000000
     48548      3854  MEOH      H1A           -24.2347532410       32.7469498238       33.4031366108  MEOH      3162            0.0000000000
     48549      3854  MEOH      H1B           -26.0330926124       32.7409387830       33.5403080164  MEOH      3162            0.0000000000
     48550      3854  MEOH      H1C           -25.2222038421       31.7715049708       32.2415228404  MEOH      3162            0.0000000000
     48551      3854  MEOH      LP1A          -24.9753453289       30.7112427146       33.9992110457  MEOH      3162            0.0000000000
     48552      3854  MEOH      LP1B          -25.1403290620       31.0980876593       34.5048595960  MEOH      3162            0.0000000000
     48553      3855  MEOH      C1             22.3145436559       33.5388413497        3.4507108684  MEOH      3163            0.0000000000
     48554      3855  MEOH      DC1            22.3251194167       33.5474594107        3.4680205542  MEOH      3163            0.0000000000
     48555      3855  MEOH      O1             22.8495065959       34.2103738780        4.5916735506  MEOH      3163            0.0000000000
     48556      3855  MEOH      DO1            22.8638886768       34.2147116698        4.6045622972  MEOH      3163            0.0000000000
     48557      3855  MEOH      HO1            22.5332262227       35.1250900617        4.5271675073  MEOH      3163            0.0000000000
     48558      3855  MEOH      HO2            22.5942607025       33.6742891657        5.3587216032  MEOH      3163            0.0000000000
     48559      3855  MEOH      H1A            22.6426641597       32.4774154260        3.4449710863  MEOH      3163            0.0000000000
     48560      3855  MEOH      H1B            22.6698269693       34.0273226301        2.5182513218  MEOH      3163            0.0000000000
     48561      3855  MEOH      H1C            21.2043353456       33.5714781962        3.4770423040  MEOH      3163            0.0000000000
     48562      3855  MEOH      LP1A           22.6290145946       34.1813744042        4.8619369552  MEOH      3163            0.0000000000
     48563      3855  MEOH      LP1B           23.1647771145       34.3422329288        4.5160581366  MEOH      3163            0.0000000000
     48564      3856  MEOH      C1            -23.9161880524       13.4254091312       18.0025457938  MEOH      3164            0.0000000000
     48565      3856  MEOH      DC1           -23.9221709399       13.4402431248       18.0184482287  MEOH      3164            0.0000000000
     48566      3856  MEOH      O1            -24.3443243462       12.3488670240       18.8377519577  MEOH      3164            0.0000000000
     48567      3856  MEOH      DO1           -24.3518623185       12.3674122885       18.8681785903  MEOH      3164            0.0000000000
     48568      3856  MEOH      HO1           -24.4613358059       11.6002767419       18.2320945391  MEOH      3164            0.0000000000
     48569      3856  MEOH      HO2           -23.7088180524       12.3029092018       19.5691339571  MEOH      3164            0.0000000000
     48570      3856  MEOH      H1A           -23.7691380389       14.3447686124       18.6087433176  MEOH      3164            0.0000000000
     48571      3856  MEOH      H1B           -24.6843395590       13.6167718611       17.2230301937  MEOH      3164            0.0000000000
     48572      3856  MEOH      H1C           -22.9655108804       13.1565550963       17.4943613554  MEOH      3164            0.0000000000
     48573      3856  MEOH      LP1A          -24.0665940305       12.1744927532       18.9600609327  MEOH      3164            0.0000000000
     48574      3856  MEOH      LP1B          -24.6932912575       12.3496758325       18.8646116050  MEOH      3164            0.0000000000
     48575      3857  MEOH      C1              3.8626176881       14.8929926561       10.2664662547  MEOH      3165            0.0000000000
     48576      3857  MEOH      DC1             3.8630542973       14.8886166662       10.2622080678  MEOH      3165            0.0000000000
     48577      3857  MEOH      O1              3.3782816975       13.6655223930       10.8199976416  MEOH      3165            0.0000000000
     48578      3857  MEOH      DO1             3.3839053734       13.6574470111       10.8126004865  MEOH      3165            0.0000000000
     48579      3857  MEOH      HO1             2.7331664056       13.2904355122       10.2002911838  MEOH      3165            0.0000000000
     48580      3857  MEOH      HO2             4.1585003568       13.1686512853       11.1120215208  MEOH      3165            0.0000000000
     48581      3857  MEOH      H1A             4.4476635275       15.4406935841       11.0359245441  MEOH      3165            0.0000000000
     48582      3857  MEOH      H1B             3.0089281032       15.5307037333        9.9520466690  MEOH      3165            0.0000000000
     48583      3857  MEOH      H1C             4.5096900257       14.6959968747        9.3850974031  MEOH      3165            0.0000000000
     48584      3857  MEOH      LP1A            3.5824064151       13.3998123629       10.7188478538  MEOH      3165            0.0000000000
     48585      3857  MEOH      LP1B            3.0998871351       13.7273265178       11.0229181132  MEOH      3165            0.0000000000
     48586      3858  MEOH      C1            -24.8200487854        4.2516009185       -5.9136377485  MEOH      3166            0.0000000000
     48587      3858  MEOH      DC1           -24.8190850492        4.2503642567       -5.9018824610  MEOH      3166            0.0000000000
     48588      3858  MEOH      O1            -24.3495905036        3.4656426942       -7.0049411944  MEOH      3166            0.0000000000
     48589      3858  MEOH      DO1           -24.3550699799        3.4588509647       -6.9841612751  MEOH      3166            0.0000000000
     48590      3858  MEOH      HO1           -23.4483095402        3.7194724039       -7.2582455650  MEOH      3166            0.0000000000
     48591      3858  MEOH      HO2           -24.6176599028        2.5493622255       -6.8332761139  MEOH      3166            0.0000000000
     48592      3858  MEOH      H1A           -25.9257587694        4.1505027042       -5.8748358892  MEOH      3166            0.0000000000
     48593      3858  MEOH      H1B           -24.5585388925        5.3213759798       -6.0603173146  MEOH      3166            0.0000000000
     48594      3858  MEOH      H1C           -24.4028988128        3.8828028508       -4.9522351868  MEOH      3166            0.0000000000
     48595      3858  MEOH      LP1A          -24.1935019342        3.1760818882       -6.8853966498  MEOH      3166            0.0000000000
     48596      3858  MEOH      LP1B          -24.4365960503        3.6174483888       -7.3080666898  MEOH      3166            0.0000000000
     48597      3859  MEOH      C1            -34.8872423360      -15.2469041549       28.0131740161  MEOH      3167            0.0000000000
     48598      3859  MEOH      DC1           -34.8962149478      -15.2502803367       28.0012922925  MEOH      3167            0.0000000000
     48599      3859  MEOH      O1            -35.3284473016      -15.2489951999       26.6521796615  MEOH      3167            0.0000000000
     48600      3859  MEOH      DO1           -35.3437574380      -15.2602707006       26.6470519038  MEOH      3167            0.0000000000
     48601      3859  MEOH      HO1           -34.5652851472      -15.4508821415       26.0885084897  MEOH      3167            0.0000000000
     48602      3859  MEOH      HO2           -36.1554189101      -15.7545606359       26.6144762309  MEOH      3167            0.0000000000
     48603      3859  MEOH      H1A           -35.6664580891      -14.8066552968       28.6714480888  MEOH      3167            0.0000000000
     48604      3859  MEOH      H1B           -33.9632952878      -14.6418284660       28.1336989652  MEOH      3167            0.0000000000
     48605      3859  MEOH      H1C           -34.6598729920      -16.2835338034       28.3418427752  MEOH      3167            0.0000000000
     48606      3859  MEOH      LP1A          -35.4388885311      -15.5688142458       26.5626335131  MEOH      3167            0.0000000000
     48607      3859  MEOH      LP1B          -35.3024940577      -14.9270180101       26.5174313096  MEOH      3167            0.0000000000
     48608      3860  MEOH      C1            -21.4321556503      -19.9957282575       35.1307005643  MEOH      3168            0.0000000000
     48609      3860  MEOH      DC1           -21.4585778337      -19.9986264835       35.1307779703  MEOH      3168            0.0000000000
     48610      3860  MEOH      O1            -22.7304027821      -20.5299903611       34.9070545923  MEOH      3168            0.0000000000
     48611      3860  MEOH      DO1           -22.7419765498      -20.5338466320       34.9185506888  MEOH      3168            0.0000000000
     48612      3860  MEOH      HO1           -23.2750554280      -19.8227238837       34.5275448727  MEOH      3168            0.0000000000
     48613      3860  MEOH      HO2           -22.5809247846      -21.3308789673       34.3806196308  MEOH      3168            0.0000000000
     48614      3860  MEOH      H1A           -20.7626388234      -20.7743410162       35.5547647001  MEOH      3168            0.0000000000
     48615      3860  MEOH      H1B           -21.4829416575      -19.1376156445       35.8345361451  MEOH      3168            0.0000000000
     48616      3860  MEOH      H1C           -20.9860053660      -19.6473951602       34.1747010982  MEOH      3168            0.0000000000
     48617      3860  MEOH      LP1A          -22.7477561855      -20.6727735847       34.5879749620  MEOH      3168            0.0000000000
     48618      3860  MEOH      LP1B          -22.9282348493      -20.4873180752       35.1926094018  MEOH      3168            0.0000000000
     48619      3861  MEOH      C1            -32.7246849925        5.9044377639       20.1575999342  MEOH      3169            0.0000000000
     48620      3861  MEOH      DC1           -32.7286408945        5.9063855609       20.1577520360  MEOH      3169            0.0000000000
     48621      3861  MEOH      O1            -32.6543856205        6.7065101716       18.9819668044  MEOH      3169            0.0000000000
     48622      3861  MEOH      DO1           -32.6643557796        6.7034097009       18.9773387308  MEOH      3169            0.0000000000
     48623      3861  MEOH      HO1           -32.4649702430        6.1189855966       18.2337444509  MEOH      3169            0.0000000000
     48624      3861  MEOH      HO2           -33.4261428559        7.2940068277       18.9937332255  MEOH      3169            0.0000000000
     48625      3861  MEOH      H1A           -32.7420640633        6.5572122481       21.0564349815  MEOH      3169            0.0000000000
     48626      3861  MEOH      H1B           -31.8346376997        5.2415866631       20.2101854386  MEOH      3169            0.0000000000
     48627      3861  MEOH      H1C           -33.6403965684        5.2757087790       20.1353924290  MEOH      3169            0.0000000000
     48628      3861  MEOH      LP1A          -32.9720583378        6.7360861657       18.8380595243  MEOH      3169            0.0000000000
     48629      3861  MEOH      LP1B          -32.3270736997        6.8210703950       18.9346079436  MEOH      3169            0.0000000000
     48630      3862  MEOH      C1            -31.9442860431      -36.9793573001       -6.6502973967  MEOH      3170            0.0000000000
     48631      3862  MEOH      DC1           -31.9421928569      -36.9708522193       -6.6496504136  MEOH      3170            0.0000000000
     48632      3862  MEOH      O1            -32.1396124923      -35.5946275566       -6.9506709108  MEOH      3170            0.0000000000
     48633      3862  MEOH      DO1           -32.1230723853      -35.5833993745       -6.9394427566  MEOH      3170            0.0000000000
     48634      3862  MEOH      HO1           -32.7339641150      -35.2183420836       -6.2827971263  MEOH      3170            0.0000000000
     48635      3862  MEOH      HO2           -31.2686170352      -35.2214402632       -7.1580308821  MEOH      3170            0.0000000000
     48636      3862  MEOH      H1A           -31.5062017085      -37.4948280103       -7.5315993106  MEOH      3170            0.0000000000
     48637      3862  MEOH      H1B           -32.9160120524      -37.4588727287       -6.4050739951  MEOH      3170            0.0000000000
     48638      3862  MEOH      H1C           -31.2544103025      -37.0894099060       -5.7864218915  MEOH      3170            0.0000000000
     48639      3862  MEOH      LP1A          -31.8933647239      -35.4020889800       -6.7932195434  MEOH      3170            0.0000000000
     48640      3862  MEOH      LP1B          -32.4116638205      -35.5563929595       -7.1675261400  MEOH      3170            0.0000000000
     48641      3863  MEOH      C1             25.1696654155        4.2622418819        7.6931474727  MEOH      3171            0.0000000000
     48642      3863  MEOH      DC1            25.1590669354        4.2632900014        7.6965479570  MEOH      3171            0.0000000000
     48643      3863  MEOH      O1             25.2040267490        2.8895404903        7.3199150519  MEOH      3171            0.0000000000
     48644      3863  MEOH      DO1            25.1962167628        2.8904900059        7.3201463481  MEOH      3171            0.0000000000
     48645      3863  MEOH      HO1            26.0994075134        2.7245260764        6.9853055333  MEOH      3171            0.0000000000
     48646      3863  MEOH      HO2            24.8829382488        2.4058981127        8.0970200810  MEOH      3171            0.0000000000
     48647      3863  MEOH      H1A            24.1476130154        4.5549303465        8.0157359955  MEOH      3171            0.0000000000
     48648      3863  MEOH      H1B            25.4689535916        4.8923224103        6.8284243290  MEOH      3171            0.0000000000
     48649      3863  MEOH      H1C            25.8720172466        4.4455252650        8.5342361177  MEOH      3171            0.0000000000
     48650      3863  MEOH      LP1A           25.3000564089        2.6934744980        7.5934775331  MEOH      3171            0.0000000000
     48651      3863  MEOH      LP1B           25.1028303622        2.8534884385        6.9868091515  MEOH      3171            0.0000000000
     48652      3864  MEOH      C1             22.5578335135      -31.8118425966       -0.9610797189  MEOH      3172            0.0000000000
     48653      3864  MEOH      DC1            22.5526892595      -31.8161438908       -0.9643347513  MEOH      3172            0.0000000000
     48654      3864  MEOH      O1             23.9409809045      -32.1641449824       -1.0756159405  MEOH      3172            0.0000000000
     48655      3864  MEOH      DO1            23.9303148749      -32.1828207038       -1.0848516403  MEOH      3172            0.0000000000
     48656      3864  MEOH      HO1            24.4520131104      -31.3473614645       -1.1879136240  MEOH      3172            0.0000000000
     48657      3864  MEOH      HO2            24.1321849161      -32.7063367809       -0.2943547296  MEOH      3172            0.0000000000
     48658      3864  MEOH      H1A            21.9611934179      -32.7138772683       -0.7067668245  MEOH      3172            0.0000000000
     48659      3864  MEOH      H1B            22.1791164405      -31.3988699457       -1.9204273974  MEOH      3172            0.0000000000
     48660      3864  MEOH      H1C            22.4281093411      -31.0606266457       -0.1528920944  MEOH      3172            0.0000000000
     48661      3864  MEOH      LP1A           24.0884048159      -32.1750331613       -0.7583658216  MEOH      3172            0.0000000000
     48662      3864  MEOH      LP1B           24.0220848100      -32.2232570939       -1.4109186616  MEOH      3172            0.0000000000
     48663      3865  MEOH      C1             29.8679978363        1.5118107048      -24.1845970471  MEOH      3173            0.0000000000
     48664      3865  MEOH      DC1            29.8798653851        1.5238230888      -24.1844419651  MEOH      3173            0.0000000000
     48665      3865  MEOH      O1             29.4445144395        0.3768994501      -24.9397362539  MEOH      3173            0.0000000000
     48666      3865  MEOH      DO1            29.4575906688        0.3896678015      -24.9486815948  MEOH      3173            0.0000000000
     48667      3865  MEOH      HO1            29.4735515742       -0.3982833071      -24.3573716450  MEOH      3173            0.0000000000
     48668      3865  MEOH      HO2            28.5926633421        0.6359478257      -25.3246305875  MEOH      3173            0.0000000000
     48669      3865  MEOH      H1A            29.7771184377        2.4193304904      -24.8190021019  MEOH      3173            0.0000000000
     48670      3865  MEOH      H1B            30.9370677803        1.4177934959      -23.8972449621  MEOH      3173            0.0000000000
     48671      3865  MEOH      H1C            29.2279456599        1.6296807222      -23.2841744402  MEOH      3173            0.0000000000
     48672      3865  MEOH      LP1A           29.0970552731        0.3411733920      -24.9174702160  MEOH      3173            0.0000000000
     48673      3865  MEOH      LP1B           29.7194785938        0.2289573465      -25.0978749519  MEOH      3173            0.0000000000
     48674      3866  MEOH      C1              1.8870951506      -32.5784371172      -30.7596528559  MEOH      3174            0.0000000000
     48675      3866  MEOH      DC1             1.8864296651      -32.5710486520      -30.7552752457  MEOH      3174            0.0000000000
     48676      3866  MEOH      O1              3.0842425923      -32.7976408867      -31.5200644056  MEOH      3174            0.0000000000
     48677      3866  MEOH      DO1             3.0886666237      -32.7917231099      -31.5188557108  MEOH      3174            0.0000000000
     48678      3866  MEOH      HO1             3.0952687104      -33.7311977820      -31.7832182572  MEOH      3174            0.0000000000
     48679      3866  MEOH      HO2             3.1107633721      -32.0963560375      -32.1896883363  MEOH      3174            0.0000000000
     48680      3866  MEOH      H1A             1.8402536891      -31.5182660300      -30.4307696774  MEOH      3174            0.0000000000
     48681      3866  MEOH      H1B             1.8880180854      -33.2265963139      -29.8573171066  MEOH      3174            0.0000000000
     48682      3866  MEOH      H1C             0.9865828515      -32.7991867284      -31.3717543249  MEOH      3174            0.0000000000
     48683      3866  MEOH      LP1A            3.0240171623      -32.7344654803      -31.8590065328  MEOH      3174            0.0000000000
     48684      3866  MEOH      LP1B            3.3470662675      -32.8863550766      -31.3066317272  MEOH      3174            0.0000000000
     48685      3867  MEOH      C1             23.7906275615      -28.6301318587      -14.0509494675  MEOH      3175            0.0000000000
     48686      3867  MEOH      DC1            23.7727323357      -28.6357230116      -14.0519978167  MEOH      3175            0.0000000000
     48687      3867  MEOH      O1             23.7883392812      -28.4096210281      -12.6469311335  MEOH      3175            0.0000000000
     48688      3867  MEOH      DO1            23.7769625194      -28.4150748368      -12.6455640410  MEOH      3175            0.0000000000
     48689      3867  MEOH      HO1            24.1562965821      -27.5228845053      -12.5083462665  MEOH      3175            0.0000000000
     48690      3867  MEOH      HO2            22.9048174667      -28.6571193399      -12.3322347893  MEOH      3175            0.0000000000
     48691      3867  MEOH      H1A            23.5034739602      -29.6807914506      -14.2699888047  MEOH      3175            0.0000000000
     48692      3867  MEOH      H1B            24.8029690240      -28.4295779806      -14.4623664180  MEOH      3175            0.0000000000
     48693      3867  MEOH      H1C            23.0721018466      -27.9301932459      -14.5285766611  MEOH      3175            0.0000000000
     48694      3867  MEOH      LP1A           23.4839011075      -28.2677178980      -12.5485395682  MEOH      3175            0.0000000000
     48695      3867  MEOH      LP1B           24.0878470473      -28.5247933131      -12.5071797728  MEOH      3175            0.0000000000
     48696      3868  MEOH      C1            -36.3312309849       30.8972543152      -24.7250486392  MEOH      3176            0.0000000000
     48697      3868  MEOH      DC1           -36.3408823830       30.9060491348      -24.7258862170  MEOH      3176            0.0000000000
     48698      3868  MEOH      O1            -36.7633825046       31.7307146974      -23.6477317586  MEOH      3176            0.0000000000
     48699      3868  MEOH      DO1           -36.7823948181       31.7387294177      -23.6462878875  MEOH      3176            0.0000000000
     48700      3868  MEOH      HO1           -36.7488585960       32.6433417949      -23.9760621373  MEOH      3176            0.0000000000
     48701      3868  MEOH      HO2           -37.5650846379       31.3202850438      -23.2875634802  MEOH      3176            0.0000000000
     48702      3868  MEOH      H1A           -36.1601710907       29.8605507947      -24.3640703528  MEOH      3176            0.0000000000
     48703      3868  MEOH      H1B           -35.3884236220       31.2853559995      -25.1664241726  MEOH      3176            0.0000000000
     48704      3868  MEOH      H1C           -37.1139184667       30.8869891041      -25.5134748768  MEOH      3176            0.0000000000
     48705      3868  MEOH      LP1A          -37.1116630601       31.7646186387      -23.6548855967  MEOH      3176            0.0000000000
     48706      3868  MEOH      LP1B          -36.4887325317       31.8271881189      -23.4534117356  MEOH      3176            0.0000000000
     48707      3869  MEOH      C1             26.3318789101       36.4564057683        2.8458448304  MEOH      3177            0.0000000000
     48708      3869  MEOH      DC1            26.3183544117       36.4665459870        2.8407789157  MEOH      3177            0.0000000000
     48709      3869  MEOH      O1             27.7301594536       36.6622552716        2.7789870931  MEOH      3177            0.0000000000
     48710      3869  MEOH      DO1            27.7149400215       36.6502576346        2.7668521710  MEOH      3177            0.0000000000
     48711      3869  MEOH      HO1            27.9132199340       37.4018097319        2.1786138251  MEOH      3177            0.0000000000
     48712      3869  MEOH      HO2            28.0194709801       36.7660961077        3.6989957467  MEOH      3177            0.0000000000
     48713      3869  MEOH      H1A            26.1215828356       35.5434420255        3.4429995558  MEOH      3177            0.0000000000
     48714      3869  MEOH      H1B            25.9215847115       36.3183221227        1.8226573708  MEOH      3177            0.0000000000
     48715      3869  MEOH      H1C            25.8635695249       37.3351251454        3.3386526820  MEOH      3177            0.0000000000
     48716      3869  MEOH      LP1A           27.8304769807       36.8850404076        3.0295927134  MEOH      3177            0.0000000000
     48717      3869  MEOH      LP1B           27.8680673508       36.4656175717        2.5243991380  MEOH      3177            0.0000000000
     48718      3870  MEOH      C1             23.2971065017        8.3014747514       -8.4839939554  MEOH      3178            0.0000000000
     48719      3870  MEOH      DC1            23.2900791133        8.3025687687       -8.4850029961  MEOH      3178            0.0000000000
     48720      3870  MEOH      O1             21.9309902179        8.5682275185       -8.1737865844  MEOH      3178            0.0000000000
     48721      3870  MEOH      DO1            21.9224332900        8.5705575804       -8.1846982319  MEOH      3178            0.0000000000
     48722      3870  MEOH      HO1            21.5957924252        9.1624428072       -8.8633158668  MEOH      3178            0.0000000000
     48723      3870  MEOH      HO2            21.5188186022        7.7043245200       -8.0166682583  MEOH      3178            0.0000000000
     48724      3870  MEOH      H1A            23.7835975402        7.7850018198       -7.6290651974  MEOH      3178            0.0000000000
     48725      3870  MEOH      H1B            23.8448925810        9.2496500344       -8.6716506738  MEOH      3178            0.0000000000
     48726      3870  MEOH      H1C            23.3539226605        7.6430191765       -9.3770388493  MEOH      3178            0.0000000000
     48727      3870  MEOH      LP1A           21.7252101896        8.3273717099       -8.3225920260  MEOH      3178            0.0000000000
     48728      3870  MEOH      LP1B           21.9082220425        8.8471695001       -7.9636128917  MEOH      3178            0.0000000000
     48729      3871  MEOH      C1            -37.0510779145      -31.3190739816       -8.0068896299  MEOH      3179            0.0000000000
     48730      3871  MEOH      DC1           -37.0352941204      -31.2964773324       -8.0128100119  MEOH      3179            0.0000000000
     48731      3871  MEOH      O1            -37.1929956496      -32.4465091726       -7.1405612600  MEOH      3179            0.0000000000
     48732      3871  MEOH      DO1           -37.1694583120      -32.4235688375       -7.1275456863  MEOH      3179            0.0000000000
     48733      3871  MEOH      HO1           -37.0939959299      -33.2487705996       -7.6767288264  MEOH      3179            0.0000000000
     48734      3871  MEOH      HO2           -36.6553008061      -32.2743335805       -6.3518028554  MEOH      3179            0.0000000000
     48735      3871  MEOH      H1A           -37.4665261979      -30.4185052493       -7.5061904365  MEOH      3179            0.0000000000
     48736      3871  MEOH      H1B           -37.6043103068      -31.4986571491       -8.9534649346  MEOH      3179            0.0000000000
     48737      3871  MEOH      H1C           -35.9746094597      -31.1527047557       -8.2256542225  MEOH      3179            0.0000000000
     48738      3871  MEOH      LP1A          -36.8816916008      -32.5350220855       -7.0073124196  MEOH      3179            0.0000000000
     48739      3871  MEOH      LP1B          -37.5296775389      -32.5398461824       -7.1197404050  MEOH      3179            0.0000000000
     48740      3872  MEOH      C1              7.0484619025       21.6688031577       -7.6394408980  MEOH      3180            0.0000000000
     48741      3872  MEOH      DC1             7.0508059130       21.6706756378       -7.6311281157  MEOH      3180            0.0000000000
     48742      3872  MEOH      O1              7.4222901037       22.6016397325       -6.6275618565  MEOH      3180            0.0000000000
     48743      3872  MEOH      DO1             7.4305349983       22.5976592956       -6.6165863929  MEOH      3180            0.0000000000
     48744      3872  MEOH      HO1             7.0608216532       23.4607612448       -6.8961708418  MEOH      3180            0.0000000000
     48745      3872  MEOH      HO2             7.1751224958       22.1957001223       -5.7819725906  MEOH      3180            0.0000000000
     48746      3872  MEOH      H1A             7.5494184056       20.6959739549       -7.4471730480  MEOH      3180            0.0000000000
     48747      3872  MEOH      H1B             7.3577960762       22.0454415378       -8.6378280477  MEOH      3180            0.0000000000
     48748      3872  MEOH      H1C             5.9488024919       21.5109930390       -7.6265510918  MEOH      3180            0.0000000000
     48749      3872  MEOH      LP1A            7.1785975519       22.6099434391       -6.3764742450  MEOH      3180            0.0000000000
     48750      3872  MEOH      LP1B            7.7340986099       22.7415642239       -6.7030376283  MEOH      3180            0.0000000000
     48751      3873  MEOH      C1            -29.5297287912      -11.0851561308        7.2566306588  MEOH      3181            0.0000000000
     48752      3873  MEOH      DC1           -29.5266654227      -11.0689910390        7.2515926655  MEOH      3181            0.0000000000
     48753      3873  MEOH      O1            -29.5189388137      -12.5075765672        7.3454015817  MEOH      3181            0.0000000000
     48754      3873  MEOH      DO1           -29.5210412517      -12.4933757261        7.3427894432  MEOH      3181            0.0000000000
     48755      3873  MEOH      HO1           -28.6799143082      -12.8005508946        7.7341224629  MEOH      3181            0.0000000000
     48756      3873  MEOH      HO2           -30.3597843990      -12.7538758871        7.7615930600  MEOH      3181            0.0000000000
     48757      3873  MEOH      H1A           -30.4801016638      -10.7677609929        6.7766590660  MEOH      3181            0.0000000000
     48758      3873  MEOH      H1B           -28.6688808283      -10.7377081012        6.6462687567  MEOH      3181            0.0000000000
     48759      3873  MEOH      H1C           -29.4879912412      -10.6334621740        8.2708059631  MEOH      3181            0.0000000000
     48760      3873  MEOH      LP1A          -29.6562016189      -12.6095015522        7.6508033167  MEOH      3181            0.0000000000
     48761      3873  MEOH      LP1B          -29.3903634542      -12.6449623315        7.0502854542  MEOH      3181            0.0000000000
     48762      3874  MEOH      C1              5.3862368959      -26.1506509252      -32.3019536899  MEOH      3182            0.0000000000
     48763      3874  MEOH      DC1             5.3918586365      -26.1585857483      -32.3054064738  MEOH      3182            0.0000000000
     48764      3874  MEOH      O1              6.7886613222      -25.9206003485      -32.4693639239  MEOH      3182            0.0000000000
     48765      3874  MEOH      DO1             6.7933419981      -25.9297545153      -32.4728416499  MEOH      3182            0.0000000000
     48766      3874  MEOH      HO1             7.1010202494      -25.5252686697      -31.6404822892  MEOH      3182            0.0000000000
     48767      3874  MEOH      HO2             7.1648301253      -26.7511730663      -32.8003412534  MEOH      3182            0.0000000000
     48768      3874  MEOH      H1A             4.9300339003      -26.4871720643      -33.2574396133  MEOH      3182            0.0000000000
     48769      3874  MEOH      H1B             4.8840767250      -25.2147513309      -31.9759964631  MEOH      3182            0.0000000000
     48770      3874  MEOH      H1C             5.2294775234      -26.9300423208      -31.5258760184  MEOH      3182            0.0000000000
     48771      3874  MEOH      LP1A            6.9691116810      -26.2033979716      -32.3695482320  MEOH      3182            0.0000000000
     48772      3874  MEOH      LP1B            6.8422890631      -25.6036485646      -32.6078039186  MEOH      3182            0.0000000000
     48773      3875  MEOH      C1            -17.9020595612        3.8769000778      -22.1998592116  MEOH      3183            0.0000000000
     48774      3875  MEOH      DC1           -17.9127412658        3.8881571446      -22.1995984032  MEOH      3183            0.0000000000
     48775      3875  MEOH      O1            -17.8570099724        2.5328174854      -22.6804700829  MEOH      3183            0.0000000000
     48776      3875  MEOH      DO1           -17.8678884435        2.5445365048      -22.6852010450  MEOH      3183            0.0000000000
     48777      3875  MEOH      HO1           -17.2061581573        2.0466467564      -22.1504418405  MEOH      3183            0.0000000000
     48778      3875  MEOH      HO2           -18.7784882417        2.2302706857      -22.6960660212  MEOH      3183            0.0000000000
     48779      3875  MEOH      H1A           -18.6040050595        4.4719243901      -22.8223859868  MEOH      3183            0.0000000000
     48780      3875  MEOH      H1B           -16.8921533007        4.3368471124      -22.2533294868  MEOH      3183            0.0000000000
     48781      3875  MEOH      H1C           -18.2574134977        3.8818390473      -21.1472338329  MEOH      3183            0.0000000000
     48782      3875  MEOH      LP1A          -18.0933563816        2.3373911957      -22.5118019468  MEOH      3183            0.0000000000
     48783      3875  MEOH      LP1B          -17.6210928975        2.5054602947      -22.9375590129  MEOH      3183            0.0000000000
     48784      3876  MEOH      C1             30.0185675097      -30.4052216006      -24.0576504366  MEOH      3184            0.0000000000
     48785      3876  MEOH      DC1            30.0139476079      -30.4124235790      -24.0571102458  MEOH      3184            0.0000000000
     48786      3876  MEOH      O1             29.0028798974      -29.5657991430      -23.5090800460  MEOH      3184            0.0000000000
     48787      3876  MEOH      DO1            28.9954669644      -29.5755496062      -23.5086660255  MEOH      3184            0.0000000000
     48788      3876  MEOH      HO1            28.6649185005      -29.0091226008      -24.2279634321  MEOH      3184            0.0000000000
     48789      3876  MEOH      HO2            28.4142059226      -30.1499450449      -23.0059533059  MEOH      3184            0.0000000000
     48790      3876  MEOH      H1A            30.5659738331      -30.9114348636      -23.2339906462  MEOH      3184            0.0000000000
     48791      3876  MEOH      H1B            30.7421329395      -29.8051057047      -24.6497948281  MEOH      3184            0.0000000000
     48792      3876  MEOH      H1C            29.5493952204      -31.1717272451      -24.7108483102  MEOH      3184            0.0000000000
     48793      3876  MEOH      LP1A           28.6921710532      -29.7257966989      -23.5280746831  MEOH      3184            0.0000000000
     48794      3876  MEOH      LP1B           29.1448368228      -29.2697771446      -23.3877573037  MEOH      3184            0.0000000000
     48795      3877  MEOH      C1             -9.9349108354      -22.7862668091       14.8114874645  MEOH      3185            0.0000000000
     48796      3877  MEOH      DC1            -9.9312583913      -22.7889615433       14.8010384471  MEOH      3185            0.0000000000
     48797      3877  MEOH      O1            -10.0303510283      -22.8522723687       16.2307733598  MEOH      3185            0.0000000000
     48798      3877  MEOH      DO1           -10.0215951461      -22.8468363073       16.2255319313  MEOH      3185            0.0000000000
     48799      3877  MEOH      HO1            -9.2489219918      -22.4117488260       16.5998365939  MEOH      3185            0.0000000000
     48800      3877  MEOH      HO2           -10.9192535078      -22.5333363896       16.4522055687  MEOH      3185            0.0000000000
     48801      3877  MEOH      H1A           -10.7929498300      -23.3408632177       14.3750096189  MEOH      3185            0.0000000000
     48802      3877  MEOH      H1B            -8.9826738772      -23.2494617546       14.4753086153  MEOH      3185            0.0000000000
     48803      3877  MEOH      H1C            -9.9822285641      -21.7277920133       14.4772523087  MEOH      3185            0.0000000000
     48804      3877  MEOH      LP1A          -10.2056885765      -22.5746737048       16.3519992893  MEOH      3185            0.0000000000
     48805      3877  MEOH      LP1B           -9.8810132500      -23.1466110438       16.3472335346  MEOH      3185            0.0000000000
     48806      3878  MEOH      C1            -23.5448357684       -4.3140177888       -0.8337312124  MEOH      3186            0.0000000000
     48807      3878  MEOH      DC1           -23.5460054973       -4.3055077712       -0.8413809382  MEOH      3186            0.0000000000
     48808      3878  MEOH      O1            -23.0590086711       -3.4220271223        0.1715244367  MEOH      3186            0.0000000000
     48809      3878  MEOH      DO1           -23.0665716043       -3.4237437341        0.1631556185  MEOH      3186            0.0000000000
     48810      3878  MEOH      HO1           -22.1806305976       -3.7067030642        0.4686970611  MEOH      3186            0.0000000000
     48811      3878  MEOH      HO2           -23.2518643233       -2.5193097298       -0.1264822857  MEOH      3186            0.0000000000
     48812      3878  MEOH      H1A           -24.6410739914       -4.1748786204       -0.9487227376  MEOH      3186            0.0000000000
     48813      3878  MEOH      H1B           -23.3605131389       -5.3672714994       -0.5320645265  MEOH      3186            0.0000000000
     48814      3878  MEOH      H1C           -23.0538451506       -4.1178614688       -1.8108555201  MEOH      3186            0.0000000000
     48815      3878  MEOH      LP1A          -22.8840696901       -3.1578873493        0.0227745350  MEOH      3186            0.0000000000
     48816      3878  MEOH      LP1B          -23.1621988827       -3.5305545423        0.4878685204  MEOH      3186            0.0000000000
     48817      3879  MEOH      C1            -33.8839991608       35.8286932110      -24.2658024452  MEOH      3187            0.0000000000
     48818      3879  MEOH      DC1           -33.8870587626       35.8308308311      -24.2637071224  MEOH      3187            0.0000000000
     48819      3879  MEOH      O1            -32.6680654826       36.4958698801      -23.9226884115  MEOH      3187            0.0000000000
     48820      3879  MEOH      DO1           -32.6715392486       36.4992560776      -23.9238227462  MEOH      3187            0.0000000000
     48821      3879  MEOH      HO1           -32.5931303134       36.4854218421      -22.9556436557  MEOH      3187            0.0000000000
     48822      3879  MEOH      HO2           -31.9776796514       36.0693360807      -24.4540417046  MEOH      3187            0.0000000000
     48823      3879  MEOH      H1A           -34.0123008699       35.8268644223      -25.3693677254  MEOH      3187            0.0000000000
     48824      3879  MEOH      H1B           -34.7500484257       36.3585481521      -23.8146556707  MEOH      3187            0.0000000000
     48825      3879  MEOH      H1C           -33.8590246083       34.7767235294      -23.9093518052  MEOH      3187            0.0000000000
     48826      3879  MEOH      LP1A          -32.4037374993       36.2665814812      -23.9151024118  MEOH      3187            0.0000000000
     48827      3879  MEOH      LP1B          -32.7264975006       36.8387721157      -23.8839101174  MEOH      3187            0.0000000000
     48828      3880  MEOH      C1              7.5716260706        3.4713017997       -8.4945781211  MEOH      3188            0.0000000000
     48829      3880  MEOH      DC1             7.5730696123        3.4747702167       -8.4839262951  MEOH      3188            0.0000000000
     48830      3880  MEOH      O1              8.9467118879        3.4766869807       -8.9074557421  MEOH      3188            0.0000000000
     48831      3880  MEOH      DO1             8.9546901135        3.4841898582       -8.8853951402  MEOH      3188            0.0000000000
     48832      3880  MEOH      HO1             8.9656430309        3.4075103584       -9.8748006686  MEOH      3188            0.0000000000
     48833      3880  MEOH      HO2             9.3630640782        4.2248075770       -8.4515320333  MEOH      3188            0.0000000000
     48834      3880  MEOH      H1A             7.5150255685        3.5171746270       -7.3859695031  MEOH      3188            0.0000000000
     48835      3880  MEOH      H1B             7.0698256262        2.5412045638       -8.8372681352  MEOH      3188            0.0000000000
     48836      3880  MEOH      H1C             7.0319417305        4.3483796114       -8.9114669884  MEOH      3188            0.0000000000
     48837      3880  MEOH      LP1A            9.0546322410        3.8054593780       -8.9600096014  MEOH      3188            0.0000000000
     48838      3880  MEOH      LP1B            9.0713794893        3.1496861025       -8.9127862961  MEOH      3188            0.0000000000
     48839      3881  MEOH      C1             -8.2787214022       -9.7435989935       -3.7802405236  MEOH      3189            0.0000000000
     48840      3881  MEOH      DC1            -8.2860710717       -9.7410984430       -3.7786135896  MEOH      3189            0.0000000000
     48841      3881  MEOH      O1             -7.9324588782       -9.1097649041       -2.5508184958  MEOH      3189            0.0000000000
     48842      3881  MEOH      DO1            -7.9267388641       -9.1162439125       -2.5583921788  MEOH      3189            0.0000000000
     48843      3881  MEOH      HO1            -8.4910564219       -9.4416429047       -1.8305922964  MEOH      3189            0.0000000000
     48844      3881  MEOH      HO2            -6.9636924659       -9.1250536680       -2.5043653779  MEOH      3189            0.0000000000
     48845      3881  MEOH      H1A            -7.7587142434       -9.2387923023       -4.6223116373  MEOH      3189            0.0000000000
     48846      3881  MEOH      H1B            -9.3742725377       -9.6871169029       -3.9560201664  MEOH      3189            0.0000000000
     48847      3881  MEOH      H1C            -7.9581178450      -10.8072225184       -3.7647693026  MEOH      3189            0.0000000000
     48848      3881  MEOH      LP1A           -7.6800708504       -9.2909481844       -2.3896573890  MEOH      3189            0.0000000000
     48849      3881  MEOH      LP1B           -8.1186188700       -8.8160706345       -2.5109671036  MEOH      3189            0.0000000000
     48850      3882  MEOH      C1             -1.4887343258       22.9065574812       -8.9733307365  MEOH      3190            0.0000000000
     48851      3882  MEOH      DC1            -1.4881744133       22.8982301962       -8.9708170888  MEOH      3190            0.0000000000
     48852      3882  MEOH      O1             -0.3562113047       23.5454643152       -8.3726894625  MEOH      3190            0.0000000000
     48853      3882  MEOH      DO1            -0.3484061102       23.5394901302       -8.3664283732  MEOH      3190            0.0000000000
     48854      3882  MEOH      HO1             0.0959663063       22.8765417139       -7.8351227565  MEOH      3190            0.0000000000
     48855      3882  MEOH      HO2             0.1118979205       23.9943627522       -9.0939827084  MEOH      3190            0.0000000000
     48856      3882  MEOH      H1A            -2.0852280330       23.6647030854       -9.5244491461  MEOH      3190            0.0000000000
     48857      3882  MEOH      H1B            -2.1241176581       22.4436358702       -8.1882749402  MEOH      3190            0.0000000000
     48858      3882  MEOH      H1C            -1.1649238794       22.1104600811       -9.6773880668  MEOH      3190            0.0000000000
     48859      3882  MEOH      LP1A           -0.0784612542       23.5203006843       -8.5841645228  MEOH      3190            0.0000000000
     48860      3882  MEOH      LP1B           -0.4474728128       23.6872735298       -8.0659950155  MEOH      3190            0.0000000000
     48861      3883  MEOH      C1             34.1284036328      -19.5747692604       29.5490599406  MEOH      3191            0.0000000000
     48862      3883  MEOH      DC1            34.1173348850      -19.5527381910       29.5539685103  MEOH      3191            0.0000000000
     48863      3883  MEOH      O1             34.6095384490      -19.8867259464       28.2466705221  MEOH      3191            0.0000000000
     48864      3883  MEOH      DO1            34.5948479316      -19.8642717872       28.2496003632  MEOH      3191            0.0000000000
     48865      3883  MEOH      HO1            35.5757112828      -19.8010058562       28.2545523044  MEOH      3191            0.0000000000
     48866      3883  MEOH      HO2            34.2187899725      -20.7458372685       28.0227433816  MEOH      3191            0.0000000000
     48867      3883  MEOH      H1A            33.0306902598      -19.7451881966       29.5664879861  MEOH      3191            0.0000000000
     48868      3883  MEOH      H1B            34.3580221991      -18.5212152872       29.8166797116  MEOH      3191            0.0000000000
     48869      3883  MEOH      H1C            34.5968342736      -20.2473836538       30.2990490161  MEOH      3191            0.0000000000
     48870      3883  MEOH      LP1A           34.6719893460      -20.2301667408       28.2212086641  MEOH      3191            0.0000000000
     48871      3883  MEOH      LP1B           34.6172730788      -19.5976568839       28.0494922966  MEOH      3191            0.0000000000
     48872      3884  MEOH      C1             11.7898582115       -2.5442418794       28.6736901507  MEOH      3192            0.0000000000
     48873      3884  MEOH      DC1            11.7855570572       -2.5412806124       28.6890947600  MEOH      3192            0.0000000000
     48874      3884  MEOH      O1             10.9149484931       -2.7467674160       29.7760353643  MEOH      3192            0.0000000000
     48875      3884  MEOH      DO1            10.9070903035       -2.7519551661       29.7890541293  MEOH      3192            0.0000000000
     48876      3884  MEOH      HO1            11.3592236904       -2.3635977954       30.5484993381  MEOH      3192            0.0000000000
     48877      3884  MEOH      HO2            10.0501981845       -2.4089861539       29.4949469022  MEOH      3192            0.0000000000
     48878      3884  MEOH      H1A            11.3855173803       -3.0337117774       27.7619617301  MEOH      3192            0.0000000000
     48879      3884  MEOH      H1B            12.7786615372       -2.9902235169       28.9138762511  MEOH      3192            0.0000000000
     48880      3884  MEOH      H1C            11.9026588552       -1.4575625396       28.4718857225  MEOH      3192            0.0000000000
     48881      3884  MEOH      LP1A           10.6937922248       -2.4769877351       29.8044752784  MEOH      3192            0.0000000000
     48882      3884  MEOH      LP1B           10.9812545687       -3.0558472614       29.9262790114  MEOH      3192            0.0000000000
     48883      3885  MEOH      C1             -2.2894079758       19.3683396940       30.3015350661  MEOH      3193            0.0000000000
     48884      3885  MEOH      DC1            -2.2976700554       19.3839805713       30.3142515862  MEOH      3193            0.0000000000
     48885      3885  MEOH      O1             -1.5711455254       20.5665521001       29.9898152967  MEOH      3193            0.0000000000
     48886      3885  MEOH      DO1            -1.5761723734       20.5826097592       30.0047408255  MEOH      3193            0.0000000000
     48887      3885  MEOH      HO1            -1.9938975351       21.3023446613       30.4596983089  MEOH      3193            0.0000000000
     48888      3885  MEOH      HO2            -0.6307865959       20.3617631569       30.1110034727  MEOH      3193            0.0000000000
     48889      3885  MEOH      H1A            -1.9144502749       18.5374548515       29.6664302692  MEOH      3193            0.0000000000
     48890      3885  MEOH      H1B            -3.3748141886       19.4995580918       30.1040607998  MEOH      3193            0.0000000000
     48891      3885  MEOH      H1C            -2.1367807505       19.1008667519       31.3690012976  MEOH      3193            0.0000000000
     48892      3885  MEOH      LP1A           -1.3100504376       20.6124884072       30.2183305277  MEOH      3193            0.0000000000
     48893      3885  MEOH      LP1B           -1.7049537184       20.7150138332       29.7024923403  MEOH      3193            0.0000000000
     48894      3886  MEOH      C1            -11.8293857214      -32.4885726869       12.9074030405  MEOH      3194            0.0000000000
     48895      3886  MEOH      DC1           -11.8216476675      -32.4745850231       12.9018373465  MEOH      3194            0.0000000000
     48896      3886  MEOH      O1            -11.4531063751      -31.1492010997       13.2403107826  MEOH      3194            0.0000000000
     48897      3886  MEOH      DO1           -11.4556410325      -31.1335367484       13.2230082543  MEOH      3194            0.0000000000
     48898      3886  MEOH      HO1           -10.5118571954      -31.0517891980       13.0270951550  MEOH      3194            0.0000000000
     48899      3886  MEOH      HO2           -12.1325915266      -30.5675887884       12.8649082677  MEOH      3194            0.0000000000
     48900      3886  MEOH      H1A           -12.8454335409      -32.7071098570       13.3000980037  MEOH      3194            0.0000000000
     48901      3886  MEOH      H1B           -11.1272397839      -33.2162367151       13.3676390066  MEOH      3194            0.0000000000
     48902      3886  MEOH      H1C           -11.8525558414      -32.6391375880       11.8068966307  MEOH      3194            0.0000000000
     48903      3886  MEOH      LP1A          -11.5059357217      -30.9383284126       12.9660084494  MEOH      3194            0.0000000000
     48904      3886  MEOH      LP1B          -11.3480286511      -31.1337620811       13.5738078720  MEOH      3194            0.0000000000
     48905      3887  MEOH      C1            -11.9290533779       11.2437064750      -15.1779200920  MEOH      3195            0.0000000000
     48906      3887  MEOH      DC1           -11.9390586614       11.2286006587      -15.1815478208  MEOH      3195            0.0000000000
     48907      3887  MEOH      O1            -11.6722294836       10.1172588644      -14.3404744346  MEOH      3195            0.0000000000
     48908      3887  MEOH      DO1           -11.6835882451       10.0953125388      -14.3455238121  MEOH      3195            0.0000000000
     48909      3887  MEOH      HO1           -11.0982039084       10.4669139602      -13.6410918834  MEOH      3195            0.0000000000
     48910      3887  MEOH      HO2           -12.5461115836        9.7596338620      -14.1183608738  MEOH      3195            0.0000000000
     48911      3887  MEOH      H1A           -12.5563141276       10.9497733861      -16.0465214352  MEOH      3195            0.0000000000
     48912      3887  MEOH      H1B           -10.9780675486       11.6710641011      -15.5617330845  MEOH      3195            0.0000000000
     48913      3887  MEOH      H1C           -12.4442960856       12.0301427403      -14.5860045973  MEOH      3195            0.0000000000
     48914      3887  MEOH      LP1A          -11.9187416979       10.0932659407      -14.0931769056  MEOH      3195            0.0000000000
     48915      3887  MEOH      LP1B          -11.3891119434        9.9456953198      -14.4540984134  MEOH      3195            0.0000000000
     48916      3888  MEOH      C1             11.4250493983        1.0152266846        0.8185512473  MEOH      3196            0.0000000000
     48917      3888  MEOH      DC1            11.4273799624        1.0027404670        0.8140416594  MEOH      3196            0.0000000000
     48918      3888  MEOH      O1             11.0489424925        2.2517234333        0.2266632426  MEOH      3196            0.0000000000
     48919      3888  MEOH      DO1            11.0420922845        2.2390634297        0.2372819448  MEOH      3196            0.0000000000
     48920      3888  MEOH      HO1            11.4205473679        2.9662218610        0.7673126798  MEOH      3196            0.0000000000
     48921      3888  MEOH      HO2            11.3075298207        2.1796539612       -0.7054518709  MEOH      3196            0.0000000000
     48922      3888  MEOH      H1A            10.9835903137        0.1854649775        0.2261574704  MEOH      3196            0.0000000000
     48923      3888  MEOH      H1B            11.0444322836        0.9518140265        1.8603911807  MEOH      3196            0.0000000000
     48924      3888  MEOH      H1C            12.5327888918        0.9301735568        0.8189772396  MEOH      3196            0.0000000000
     48925      3888  MEOH      LP1A           11.2879903543        2.3488572087       -0.0098132878  MEOH      3196            0.0000000000
     48926      3888  MEOH      LP1B           10.7409478104        2.3571807680        0.3551857167  MEOH      3196            0.0000000000
     48927      3889  MEOH      C1              3.4387422495       12.3631015706       -8.6813412755  MEOH      3197            0.0000000000
     48928      3889  MEOH      DC1             3.4449120197       12.3600359602       -8.6783542913  MEOH      3197            0.0000000000
     48929      3889  MEOH      O1              2.8290080127       13.6335960444       -8.8945501706  MEOH      3197            0.0000000000
     48930      3889  MEOH      DO1             2.8327915485       13.6324762755       -8.8810140809  MEOH      3197            0.0000000000
     48931      3889  MEOH      HO1             3.4873540362       14.2123623529       -9.3098934906  MEOH      3197            0.0000000000
     48932      3889  MEOH      HO2             2.0078429954       13.4493233340       -9.3768691348  MEOH      3197            0.0000000000
     48933      3889  MEOH      H1A             2.6907454915       11.6565252074       -8.2623285150  MEOH      3197            0.0000000000
     48934      3889  MEOH      H1B             4.2929523835       12.4621651121       -7.9778979859  MEOH      3197            0.0000000000
     48935      3889  MEOH      H1C             3.8069029862       11.9624092174       -9.6499610724  MEOH      3197            0.0000000000
     48936      3889  MEOH      LP1A            2.6719219703       13.6400211339       -9.2072524148  MEOH      3197            0.0000000000
     48937      3889  MEOH      LP1B            2.8739129493       13.8366767257       -8.6130509991  MEOH      3197            0.0000000000
     48938      3890  MEOH      C1             27.9800020970        0.4127556737        6.7868468093  MEOH      3198            0.0000000000
     48939      3890  MEOH      DC1            27.9757830834        0.4069510586        6.7837986397  MEOH      3198            0.0000000000
     48940      3890  MEOH      O1             28.6522049812        1.5524667658        6.2470728031  MEOH      3198            0.0000000000
     48941      3890  MEOH      DO1            28.6388622759        1.5512116250        6.2438910649  MEOH      3198            0.0000000000
     48942      3890  MEOH      HO1            28.7013891956        1.4535624035        5.2833825827  MEOH      3198            0.0000000000
     48943      3890  MEOH      HO2            28.2420666001        2.3329421389        6.6514794057  MEOH      3198            0.0000000000
     48944      3890  MEOH      H1A            28.0706087346        0.4176834807        7.8941350079  MEOH      3198            0.0000000000
     48945      3890  MEOH      H1B            28.4475502233       -0.5191252390        6.4030269113  MEOH      3198            0.0000000000
     48946      3890  MEOH      H1C            26.9034453511        0.4388445643        6.5135961096  MEOH      3198            0.0000000000
     48947      3890  MEOH      LP1A           28.4209509782        1.8055260660        6.1764854341  MEOH      3198            0.0000000000
     48948      3890  MEOH      LP1B           28.9972724675        1.4946521409        6.2378046275  MEOH      3198            0.0000000000
     48949      3891  MEOH      C1             36.4357222153       13.9256701249       12.0978842768  MEOH      3199            0.0000000000
     48950      3891  MEOH      DC1            36.4178810478       13.9291972427       12.1160228084  MEOH      3199            0.0000000000
     48951      3891  MEOH      O1             36.2401779925       12.6629245862       12.7034375701  MEOH      3199            0.0000000000
     48952      3891  MEOH      DO1            36.2329697978       12.6728511686       12.7176859097  MEOH      3199            0.0000000000
     48953      3891  MEOH      HO1            35.7098982174       12.1454670606       12.0773855999  MEOH      3199            0.0000000000
     48954      3891  MEOH      HO2            37.1416796936       12.3448237754       12.8677742916  MEOH      3199            0.0000000000
     48955      3891  MEOH      H1A            37.3223694159       14.3973464270       12.5729623843  MEOH      3199            0.0000000000
     48956      3891  MEOH      H1B            35.5441491056       14.5809458756       12.1980445516  MEOH      3199            0.0000000000
     48957      3891  MEOH      H1C            36.6372623856       13.7595054971       11.0180269353  MEOH      3199            0.0000000000
     48958      3891  MEOH      LP1A           36.5019813460       12.4471187361       12.6174908471  MEOH      3199            0.0000000000
     48959      3891  MEOH      LP1B           35.9513397475       12.6683613065       12.9010303590  MEOH      3199            0.0000000000
     48960      3892  MEOH      C1             15.9257043767        8.1487213518       28.9305312073  MEOH      3200            0.0000000000
     48961      3892  MEOH      DC1            15.9165372073        8.1518261511       28.9401629277  MEOH      3200            0.0000000000
     48962      3892  MEOH      O1             15.1115843693        7.8911828262       27.7841717105  MEOH      3200            0.0000000000
     48963      3892  MEOH      DO1            15.0956498456        7.8916411295       27.8020904321  MEOH      3200            0.0000000000
     48964      3892  MEOH      HO1            14.5066629283        8.6393000881       27.6605164936  MEOH      3200            0.0000000000
     48965      3892  MEOH      HO2            15.7429163539        7.7071554285       27.0711122154  MEOH      3200            0.0000000000
     48966      3892  MEOH      H1A            16.6940917567        7.3512795939       29.0199094995  MEOH      3200            0.0000000000
     48967      3892  MEOH      H1B            15.3099826016        8.1444290144       29.8552956487  MEOH      3200            0.0000000000
     48968      3892  MEOH      H1C            16.4383121208        9.1284950542       28.8228381585  MEOH      3200            0.0000000000
     48969      3892  MEOH      LP1A           15.2686202429        8.0129091707       27.4960355770  MEOH      3200            0.0000000000
     48970      3892  MEOH      LP1B           14.8235476306        7.7162863109       27.8787552506  MEOH      3200            0.0000000000
     48971      3893  MEOH      C1             24.9713291795        2.4811063092       28.9174726686  MEOH      3201            0.0000000000
     48972      3893  MEOH      DC1            24.9750974206        2.4893720917       28.9233500563  MEOH      3201            0.0000000000
     48973      3893  MEOH      O1             24.9977484835        3.4627515192       29.9559757188  MEOH      3201            0.0000000000
     48974      3893  MEOH      DO1            24.9968989726        3.4683052749       29.9580298140  MEOH      3201            0.0000000000
     48975      3893  MEOH      HO1            24.3769185434        4.1625909471       29.6996654372  MEOH      3201            0.0000000000
     48976      3893  MEOH      HO2            24.8670344723        2.9749606723       30.7841507834  MEOH      3201            0.0000000000
     48977      3893  MEOH      H1A            25.7326501175        1.6972039107       29.1179931402  MEOH      3201            0.0000000000
     48978      3893  MEOH      H1B            25.1849612036        2.9571058905       27.9366022608  MEOH      3201            0.0000000000
     48979      3893  MEOH      H1C            23.9721533372        1.9970364363       28.8769141186  MEOH      3201            0.0000000000
     48980      3893  MEOH      LP1A           24.7612153116        3.3836405440       30.2015230914  MEOH      3201            0.0000000000
     48981      3893  MEOH      LP1B           25.2464533975        3.7000411805       29.8901009711  MEOH      3201            0.0000000000
     48982      3894  MEOH      C1             -6.7203172992        0.5948187575       24.0547203660  MEOH      3202            0.0000000000
     48983      3894  MEOH      DC1            -6.7029121692        0.5919358058       24.0566589887  MEOH      3202            0.0000000000
     48984      3894  MEOH      O1             -6.0242308432        0.6483428926       25.3061054622  MEOH      3202            0.0000000000
     48985      3894  MEOH      DO1            -6.0262188182        0.6427479801       25.3135966133  MEOH      3202            0.0000000000
     48986      3894  MEOH      HO1            -5.1616946869        0.2220858232       25.1826700952  MEOH      3202            0.0000000000
     48987      3894  MEOH      HO2            -6.0779853356        1.5698968884       25.6040126439  MEOH      3202            0.0000000000
     48988      3894  MEOH      H1A            -7.7318881245        1.0387468733       24.1729290609  MEOH      3202            0.0000000000
     48989      3894  MEOH      H1B            -6.8427688013       -0.4581307466       23.7221185431  MEOH      3202            0.0000000000
     48990      3894  MEOH      H1C            -6.1705238627        1.1702899049       23.2795551347  MEOH      3202            0.0000000000
     48991      3894  MEOH      LP1A           -5.8397056027        0.9449529196       25.3278523595  MEOH      3202            0.0000000000
     48992      3894  MEOH      LP1B           -6.1013906263        0.3661086383       25.4981736625  MEOH      3202            0.0000000000
     48993      3895  MEOH      C1              3.2454604523      -32.8601772971       28.7296978298  MEOH      3203            0.0000000000
     48994      3895  MEOH      DC1             3.2419011268      -32.8697430092       28.7334504725  MEOH      3203            0.0000000000
     48995      3895  MEOH      O1              3.9904518017      -33.7163042009       29.6001034250  MEOH      3203            0.0000000000
     48996      3895  MEOH      DO1             3.9887166496      -33.7211633820       29.6096936513  MEOH      3203            0.0000000000
     48997      3895  MEOH      HO1             4.9263692271      -33.5486405004       29.4081465121  MEOH      3203            0.0000000000
     48998      3895  MEOH      HO2             3.6385843754      -33.5629695251       30.4909332589  MEOH      3203            0.0000000000
     48999      3895  MEOH      H1A             2.1590967509      -33.0628396213       28.8439908392  MEOH      3203            0.0000000000
     49000      3895  MEOH      H1B             3.5385257037      -33.0460832957       27.6742961441  MEOH      3203            0.0000000000
     49001      3895  MEOH      H1C             3.4444900868      -31.7958716333       28.9786188192  MEOH      3203            0.0000000000
     49002      3895  MEOH      LP1A            4.0524488914      -33.5536353765       29.9037400737  MEOH      3203            0.0000000000
     49003      3895  MEOH      LP1B            4.0433642452      -34.0263445905       29.4465611504  MEOH      3203            0.0000000000
     49004      3896  MEOH      C1            -28.2392053326       26.6046945186       16.4552522487  MEOH      3204            0.0000000000
     49005      3896  MEOH      DC1           -28.2314385272       26.6066473856       16.4561826707  MEOH      3204            0.0000000000
     49006      3896  MEOH      O1            -26.8607364356       26.6584372706       16.0794950795  MEOH      3204            0.0000000000
     49007      3896  MEOH      DO1           -26.8530515114       26.6598636688       16.0810032112  MEOH      3204            0.0000000000
     49008      3896  MEOH      HO1           -26.5368759030       27.5409247247       16.3187235258  MEOH      3204            0.0000000000
     49009      3896  MEOH      HO2           -26.4512886058       25.8663593600       16.4614179225  MEOH      3204            0.0000000000
     49010      3896  MEOH      H1A           -28.6788172346       25.6353338395       16.1368150495  MEOH      3204            0.0000000000
     49011      3896  MEOH      H1B           -28.8012675334       27.4276298450       15.9641468311  MEOH      3204            0.0000000000
     49012      3896  MEOH      H1C           -28.3374230140       26.7015847203       17.5576526192  MEOH      3204            0.0000000000
     49013      3896  MEOH      LP1A          -26.6602672559       26.5456460083       16.3432946987  MEOH      3204            0.0000000000
     49014      3896  MEOH      LP1B          -26.8310193935       26.7694414531       15.7488971834  MEOH      3204            0.0000000000
     49015      3897  MEOH      C1              7.5208711545       -1.5654855967       35.5408402332  MEOH      3205            0.0000000000
     49016      3897  MEOH      DC1             7.5305652089       -1.5690595613       35.5474914673  MEOH      3205            0.0000000000
     49017      3897  MEOH      O1              6.5075558264       -0.6765398151       36.0153033962  MEOH      3205            0.0000000000
     49018      3897  MEOH      DO1             6.5159678398       -0.6871305231       36.0239609820  MEOH      3205            0.0000000000
     49019      3897  MEOH      HO1             6.3083269866       -0.0366222894       35.3140805859  MEOH      3205            0.0000000000
     49020      3897  MEOH      HO2             5.8057817220       -1.2420844771       36.3738732550  MEOH      3205            0.0000000000
     49021      3897  MEOH      H1A             7.8725513039       -2.2039191038       36.3793178593  MEOH      3205            0.0000000000
     49022      3897  MEOH      H1B             8.3757649084       -0.9783830457       35.1423577793  MEOH      3205            0.0000000000
     49023      3897  MEOH      H1C             7.1188705006       -2.2181345133       34.7366226838  MEOH      3205            0.0000000000
     49024      3897  MEOH      LP1A            6.1907774048       -0.8061839980       35.9422019769  MEOH      3205            0.0000000000
     49025      3897  MEOH      LP1B            6.6543421843       -0.4035698404       36.1779107701  MEOH      3205            0.0000000000
     49026      3898  MEOH      C1             -8.3443876329      -34.7746831315       34.4766120577  MEOH      3206            0.0000000000
     49027      3898  MEOH      DC1            -8.3396042954      -34.7756737341       34.4794688958  MEOH      3206            0.0000000000
     49028      3898  MEOH      O1             -8.4525950441      -35.2620186779       35.8171439112  MEOH      3206            0.0000000000
     49029      3898  MEOH      DO1            -8.4321818525      -35.2595104493       35.8255594148  MEOH      3206            0.0000000000
     49030      3898  MEOH      HO1            -9.1146164506      -34.7077695969       36.2592249147  MEOH      3206            0.0000000000
     49031      3898  MEOH      HO2            -8.6227222932      -36.2125692746       35.7254363179  MEOH      3206            0.0000000000
     49032      3898  MEOH      H1A            -7.5811939515      -35.3639866618       33.9247264231  MEOH      3206            0.0000000000
     49033      3898  MEOH      H1B            -8.0386578450      -33.7065918495       34.4710163905  MEOH      3206            0.0000000000
     49034      3898  MEOH      H1C            -9.3221906328      -34.8629550040       33.9565828562  MEOH      3206            0.0000000000
     49035      3898  MEOH      LP1A           -8.6945951826      -35.5143368627       35.8336201550  MEOH      3206            0.0000000000
     49036      3898  MEOH      LP1B           -8.2207910069      -35.0992649429       36.0227603261  MEOH      3206            0.0000000000
     49037      3899  MEOH      C1             26.7200961332      -21.4683097814        6.4493219156  MEOH      3207            0.0000000000
     49038      3899  MEOH      DC1            26.7238054256      -21.4671503091        6.4448816295  MEOH      3207            0.0000000000
     49039      3899  MEOH      O1             28.1287632133      -21.6437170671        6.3207467384  MEOH      3207            0.0000000000
     49040      3899  MEOH      DO1            28.1381952765      -21.6329322814        6.3131255597  MEOH      3207            0.0000000000
     49041      3899  MEOH      HO1            28.5412450484      -21.2456116731        7.1032241067  MEOH      3207            0.0000000000
     49042      3899  MEOH      HO2            28.2604724612      -22.5851627026        6.1277887396  MEOH      3207            0.0000000000
     49043      3899  MEOH      H1A            26.2143874757      -21.8128406303        5.5220257114  MEOH      3207            0.0000000000
     49044      3899  MEOH      H1B            26.4810095010      -20.3936369830        6.5984425353  MEOH      3207            0.0000000000
     49045      3899  MEOH      H1C            26.3381345631      -22.0591578920        7.3091619409  MEOH      3207            0.0000000000
     49046      3899  MEOH      LP1A           28.2248392829      -21.9488962175        6.4626448533  MEOH      3207            0.0000000000
     49047      3899  MEOH      LP1B           28.2677141852      -21.3733742772        6.1472318878  MEOH      3207            0.0000000000
     49048      3900  MEOH      C1            -36.5546682249       -3.3445631360      -15.7642618868  MEOH      3208            0.0000000000
     49049      3900  MEOH      DC1           -36.5643397919       -3.3515869334      -15.7566773529  MEOH      3208            0.0000000000
     49050      3900  MEOH      O1            -36.4712232205       -1.9457213584      -16.0527551200  MEOH      3208            0.0000000000
     49051      3900  MEOH      DO1           -36.4703445688       -1.9487646156      -16.0417157582  MEOH      3208            0.0000000000
     49052      3900  MEOH      HO1           -35.8092381901       -1.8377123526      -16.7534760878  MEOH      3208            0.0000000000
     49053      3900  MEOH      HO2           -37.3818634775       -1.6446213783      -16.1975761278  MEOH      3208            0.0000000000
     49054      3900  MEOH      H1A           -37.4184168534       -3.5381719520      -15.0928641393  MEOH      3208            0.0000000000
     49055      3900  MEOH      H1B           -35.6151551860       -3.6955621541      -15.2863121617  MEOH      3208            0.0000000000
     49056      3900  MEOH      H1C           -36.6531317084       -3.9310028011      -16.7027257709  MEOH      3208            0.0000000000
     49057      3900  MEOH      LP1A          -36.7035381291       -1.8604747789      -16.3002683599  MEOH      3208            0.0000000000
     49058      3900  MEOH      LP1B          -36.2329362564       -1.7947684200      -15.8455534474  MEOH      3208            0.0000000000
     49059      3901  MEOH      C1            -36.6485913979       30.6901548291      -11.4120342064  MEOH      3209            0.0000000000
     49060      3901  MEOH      DC1           -36.6510298417       30.6980784158      -11.4108395353  MEOH      3209            0.0000000000
     49061      3901  MEOH      O1            -36.4008294591       31.3913112806      -12.6287692027  MEOH      3209            0.0000000000
     49062      3901  MEOH      DO1           -36.4116911420       31.4050061877      -12.6291674920  MEOH      3209            0.0000000000
     49063      3901  MEOH      HO1           -35.6046154734       31.9285168099      -12.4932940823  MEOH      3209            0.0000000000
     49064      3901  MEOH      HO2           -36.3854033090       30.7061549019      -13.3152258811  MEOH      3209            0.0000000000
     49065      3901  MEOH      H1A           -37.5425392794       30.0421340084      -11.5355137710  MEOH      3209            0.0000000000
     49066      3901  MEOH      H1B           -36.8314819232       31.4036872697      -10.5803230111  MEOH      3209            0.0000000000
     49067      3901  MEOH      H1C           -35.7760343678       30.0465680241      -11.1696270003  MEOH      3209            0.0000000000
     49068      3901  MEOH      LP1A          -36.1983418534       31.1982605537      -12.8390789420  MEOH      3209            0.0000000000
     49069      3901  MEOH      LP1B          -36.5709664742       31.6971734412      -12.6274520947  MEOH      3209            0.0000000000
     49070      3902  MEOH      C1             22.1237800414        4.2791947336      -16.8534354449  MEOH      3210            0.0000000000
     49071      3902  MEOH      DC1            22.1230748030        4.2848712606      -16.8607621669  MEOH      3210            0.0000000000
     49072      3902  MEOH      O1             22.6751741998        3.3562335921      -15.9200477124  MEOH      3210            0.0000000000
     49073      3902  MEOH      DO1            22.6798208893        3.3560182316      -15.9310258633  MEOH      3210            0.0000000000
     49074      3902  MEOH      HO1            22.9413044107        3.8696073080      -15.1412523992  MEOH      3210            0.0000000000
     49075      3902  MEOH      HO2            21.9999086668        2.6665708430      -15.8237058600  MEOH      3210            0.0000000000
     49076      3902  MEOH      H1A            21.8067856875        3.7285752034      -17.7648375047  MEOH      3210            0.0000000000
     49077      3902  MEOH      H1B            22.8753470453        5.0460617666      -17.1387124914  MEOH      3210            0.0000000000
     49078      3902  MEOH      H1C            21.2411495495        4.7781145398      -16.3991630137  MEOH      3210            0.0000000000
     49079      3902  MEOH      LP1A           22.4225485486        3.2293023637      -15.7137257707  MEOH      3210            0.0000000000
     49080      3902  MEOH      LP1B           23.0185741054        3.3193650887      -15.9767682408  MEOH      3210            0.0000000000
     49081      3903  MEOH      C1             15.4086114526       35.8185005737       28.0069032263  MEOH      3211            0.0000000000
     49082      3903  MEOH      DC1            15.3940929200       35.8103328898       28.0158541708  MEOH      3211            0.0000000000
     49083      3903  MEOH      O1             16.0016789479       35.4270630848       26.7767578736  MEOH      3211            0.0000000000
     49084      3903  MEOH      DO1            15.9897159479       35.4147678107       26.7778452931  MEOH      3211            0.0000000000
     49085      3903  MEOH      HO1            16.8233556514       34.9534649202       26.9803559420  MEOH      3211            0.0000000000
     49086      3903  MEOH      HO2            15.2895719404       35.0403423712       26.2436062055  MEOH      3211            0.0000000000
     49087      3903  MEOH      H1A            14.7288821883       36.6736878277       27.8045572612  MEOH      3211            0.0000000000
     49088      3903  MEOH      H1B            16.2141142560       36.1397765777       28.7013583822  MEOH      3211            0.0000000000
     49089      3903  MEOH      H1C            14.8346488604       34.9873826238       28.4696460231  MEOH      3211            0.0000000000
     49090      3903  MEOH      LP1A           15.8812845480       35.1128483611       26.6804547280  MEOH      3211            0.0000000000
     49091      3903  MEOH      LP1B           16.2133473093       35.6801805263       26.6600185674  MEOH      3211            0.0000000000
     49092      3904  MEOH      C1             36.5024347534       -1.5206059272       19.7926939236  MEOH      3212            0.0000000000
     49093      3904  MEOH      DC1            36.5167050286       -1.5168462680       19.7753497902  MEOH      3212            0.0000000000
     49094      3904  MEOH      O1             36.4833570678       -2.9461522676       19.7965526855  MEOH      3212            0.0000000000
     49095      3904  MEOH      DO1            36.5121218784       -2.9419697107       19.7765986627  MEOH      3212            0.0000000000
     49096      3904  MEOH      HO1            37.2673008540       -3.3201437461       19.3647396310  MEOH      3212            0.0000000000
     49097      3904  MEOH      HO2            36.3197107337       -3.1807574317       20.7234185307  MEOH      3212            0.0000000000
     49098      3904  MEOH      H1A            35.5986964805       -1.1455039821       20.3188846351  MEOH      3212            0.0000000000
     49099      3904  MEOH      H1B            36.4850370714       -1.1482184846       18.7461061753  MEOH      3212            0.0000000000
     49100      3904  MEOH      H1C            37.3984618655       -1.1447779150       20.3314050895  MEOH      3212            0.0000000000
     49101      3904  MEOH      LP1A           36.6348896531       -3.0671096442       20.0879410666  MEOH      3212            0.0000000000
     49102      3904  MEOH      LP1B           36.3185571204       -3.0644370525       19.5113340203  MEOH      3212            0.0000000000
     49103      3905  MEOH      C1             -9.3035674637      -30.0356827733       23.6881513949  MEOH      3213            0.0000000000
     49104      3905  MEOH      DC1            -9.2869329268      -30.0336410645       23.6958791390  MEOH      3213            0.0000000000
     49105      3905  MEOH      O1            -10.5787241592      -30.5203090303       23.2906511278  MEOH      3213            0.0000000000
     49106      3905  MEOH      DO1           -10.5643844440      -30.5250712829       23.3004409734  MEOH      3213            0.0000000000
     49107      3905  MEOH      HO1           -10.7287005820      -30.3152722146       22.3545063861  MEOH      3213            0.0000000000
     49108      3905  MEOH      HO2           -10.6699603565      -31.4138391725       23.6569567943  MEOH      3213            0.0000000000
     49109      3905  MEOH      H1A            -9.2503348852      -30.0487244927       24.7977987293  MEOH      3213            0.0000000000
     49110      3905  MEOH      H1B            -9.1747734314      -28.9947410298       23.3218545428  MEOH      3213            0.0000000000
     49111      3905  MEOH      H1C            -8.5014248333      -30.6806732754       23.2699702687  MEOH      3213            0.0000000000
     49112      3905  MEOH      LP1A          -10.5514467285      -30.8504937702       23.1778061932  MEOH      3213            0.0000000000
     49113      3905  MEOH      LP1B          -10.8226605007      -30.2757594417       23.3471361706  MEOH      3213            0.0000000000
     49114      3906  MEOH      C1             19.0218337801      -29.8811305069        3.6657797823  MEOH      3214            0.0000000000
     49115      3906  MEOH      DC1            19.0316657263      -29.8865126534        3.6528692426  MEOH      3214            0.0000000000
     49116      3906  MEOH      O1             19.4466525858      -30.3757511475        4.9405054237  MEOH      3214            0.0000000000
     49117      3906  MEOH      DO1            19.4466692997      -30.3787901471        4.9271578707  MEOH      3214            0.0000000000
     49118      3906  MEOH      HO1            20.3282897894      -30.0287512184        5.1483680990  MEOH      3214            0.0000000000
     49119      3906  MEOH      HO2            18.7122793640      -30.1848074531        5.5447706607  MEOH      3214            0.0000000000
     49120      3906  MEOH      H1A            18.0100789509      -30.2825035100        3.4431301041  MEOH      3214            0.0000000000
     49121      3906  MEOH      H1B            19.7320119625      -30.1804964926        2.8655623395  MEOH      3214            0.0000000000
     49122      3906  MEOH      H1C            18.9353660633      -28.7735147427        3.6714060899  MEOH      3214            0.0000000000
     49123      3906  MEOH      LP1A           19.3401496511      -30.1595839168        5.1943338170  MEOH      3214            0.0000000000
     49124      3906  MEOH      LP1B           19.6143271713      -30.6804055829        4.9008707370  MEOH      3214            0.0000000000
     49125      3907  MEOH      C1             28.8058680539        4.9002357703        7.8961074313  MEOH      3215            0.0000000000
     49126      3907  MEOH      DC1            28.7945787459        4.8939565103        7.8921594383  MEOH      3215            0.0000000000
     49127      3907  MEOH      O1             29.9834412870        4.4028988363        7.2642610103  MEOH      3215            0.0000000000
     49128      3907  MEOH      DO1            29.9797303747        4.3965609302        7.2618879849  MEOH      3215            0.0000000000
     49129      3907  MEOH      HO1            29.8049411548        4.4048864211        6.3108283948  MEOH      3215            0.0000000000
     49130      3907  MEOH      HO2            30.7092230800        4.9458896388        7.6096619059  MEOH      3215            0.0000000000
     49131      3907  MEOH      H1A            28.9422817303        4.8927057252        8.9986751651  MEOH      3215            0.0000000000
     49132      3907  MEOH      H1B            27.9424787573        4.2559777926        7.6244245616  MEOH      3215            0.0000000000
     49133      3907  MEOH      H1C            28.6082272169        5.9441186966        7.5711958500  MEOH      3215            0.0000000000
     49134      3907  MEOH      LP1A           30.2026454157        4.6667965360        7.1949244828  MEOH      3215            0.0000000000
     49135      3907  MEOH      LP1B           29.9669515693        4.0542922970        7.2377738441  MEOH      3215            0.0000000000
     49136      3908  MEOH      C1             28.5129455490       12.6806165447       13.9750290171  MEOH      3216            0.0000000000
     49137      3908  MEOH      DC1            28.5142688928       12.6796478828       13.9801048795  MEOH      3216            0.0000000000
     49138      3908  MEOH      O1             28.8681671416       11.4205002759       13.3998121447  MEOH      3216            0.0000000000
     49139      3908  MEOH      DO1            28.8698271406       11.4284973058       13.3974217597  MEOH      3216            0.0000000000
     49140      3908  MEOH      HO1            29.4686941563       10.9622773245       14.0083341504  MEOH      3216            0.0000000000
     49141      3908  MEOH      HO2            28.0290853920       10.9949508290       13.1636988506  MEOH      3216            0.0000000000
     49142      3908  MEOH      H1A            27.8504000834       13.2360348765       13.2772719084  MEOH      3216            0.0000000000
     49143      3908  MEOH      H1B            29.4231825503       13.2922223342       14.1531524612  MEOH      3216            0.0000000000
     49144      3908  MEOH      H1C            27.9704562003       12.5223389345       14.9315720141  MEOH      3216            0.0000000000
     49145      3908  MEOH      LP1A           28.6370123211       11.1757691863       13.4955938902  MEOH      3216            0.0000000000
     49146      3908  MEOH      LP1B           29.1522532276       11.4565919962       13.1985847024  MEOH      3216            0.0000000000
     49147      3909  MEOH      C1             31.2704665405        9.0147952483      -29.0334535691  MEOH      3217            0.0000000000
     49148      3909  MEOH      DC1            31.2587903817        9.0016703186      -29.0267169322  MEOH      3217            0.0000000000
     49149      3909  MEOH      O1             30.8934526825        9.2991767746      -30.3794844435  MEOH      3217            0.0000000000
     49150      3909  MEOH      DO1            30.8893850462        9.2907817568      -30.3753166257  MEOH      3217            0.0000000000
     49151      3909  MEOH      HO1            31.4209317939       10.0634978109      -30.6596257299  MEOH      3217            0.0000000000
     49152      3909  MEOH      HO2            30.9546328632        8.4587435306      -30.8599310573  MEOH      3217            0.0000000000
     49153      3909  MEOH      H1A            30.6154961173        8.2145215275      -28.6273788022  MEOH      3217            0.0000000000
     49154      3909  MEOH      H1B            31.1733057891        9.9327569349      -28.4152083648  MEOH      3217            0.0000000000
     49155      3909  MEOH      H1C            32.3270565047        8.6726336475      -29.0040582116  MEOH      3217            0.0000000000
     49156      3909  MEOH      LP1A           31.0934984672        9.1163814429      -30.6009964088  MEOH      3217            0.0000000000
     49157      3909  MEOH      LP1B           30.6227102476        9.5209449293      -30.3836581068  MEOH      3217            0.0000000000
     49158      3910  MEOH      C1             35.1122935367       26.0097575265      -29.0710630849  MEOH      3218            0.0000000000
     49159      3910  MEOH      DC1            35.1313189920       26.0317894477      -29.0669972516  MEOH      3218            0.0000000000
     49160      3910  MEOH      O1             35.8540797837       27.1201127058      -29.5741204409  MEOH      3218            0.0000000000
     49161      3910  MEOH      DO1            35.8788451163       27.1341071607      -29.5529649276  MEOH      3218            0.0000000000
     49162      3910  MEOH      HO1            36.3230445234       26.8349921709      -30.3739193865  MEOH      3218            0.0000000000
     49163      3910  MEOH      HO2            35.3001950811       27.9152381207      -29.5306772419  MEOH      3218            0.0000000000
     49164      3910  MEOH      H1A            34.8109468974       26.2039677715      -28.0194958811  MEOH      3218            0.0000000000
     49165      3910  MEOH      H1B            35.7341984664       25.0898648536      -29.1078425460  MEOH      3218            0.0000000000
     49166      3910  MEOH      H1C            34.2039895684       25.8277441709      -29.6843950024  MEOH      3218            0.0000000000
     49167      3910  MEOH      LP1A           35.6563202407       27.3059124486      -29.7951851797  MEOH      3218            0.0000000000
     49168      3910  MEOH      LP1B           36.1724202573       27.1271081036      -29.4288262316  MEOH      3218            0.0000000000
     49169      3911  MEOH      C1            -30.1326276226       -5.8446633106       -6.5945765298  MEOH      3219            0.0000000000
     49170      3911  MEOH      DC1           -30.1283665289       -5.8473572934       -6.6035504587  MEOH      3219            0.0000000000
     49171      3911  MEOH      O1            -29.1829213614       -6.9023155833       -6.4990129002  MEOH      3219            0.0000000000
     49172      3911  MEOH      DO1           -29.1699578629       -6.8970462260       -6.5024377656  MEOH      3219            0.0000000000
     49173      3911  MEOH      HO1           -29.0612061186       -7.1001081568       -5.5572255045  MEOH      3219            0.0000000000
     49174      3911  MEOH      HO2           -29.4961966487       -7.5946845186       -7.1018261812  MEOH      3219            0.0000000000
     49175      3911  MEOH      H1A           -30.2791451658       -5.5559900002       -7.6573659395  MEOH      3219            0.0000000000
     49176      3911  MEOH      H1B           -29.7645324887       -4.9551567709       -6.0399549566  MEOH      3219            0.0000000000
     49177      3911  MEOH      H1C           -31.1013222175       -6.1766904000       -6.1636359374  MEOH      3219            0.0000000000
     49178      3911  MEOH      LP1A          -29.3464419645       -7.2115182898       -6.5114506924  MEOH      3219            0.0000000000
     49179      3911  MEOH      LP1B          -28.8589066040       -6.7710769517       -6.4819583239  MEOH      3219            0.0000000000
     49180      3912  MEOH      C1              1.9698364880       20.3336728264       -8.3416993295  MEOH      3220            0.0000000000
     49181      3912  MEOH      DC1             1.9841020079       20.3246873027       -8.3358343522  MEOH      3220            0.0000000000
     49182      3912  MEOH      O1              2.4330854997       19.5340370960       -7.2507140326  MEOH      3220            0.0000000000
     49183      3912  MEOH      DO1             2.4488457894       19.5342505181       -7.2466622547  MEOH      3220            0.0000000000
     49184      3912  MEOH      HO1             1.7371325389       19.5685193624       -6.5759100229  MEOH      3220            0.0000000000
     49185      3912  MEOH      HO2             2.6759089978       18.6779516717       -7.6367897958  MEOH      3220            0.0000000000
     49186      3912  MEOH      H1A             2.7068282430       20.3232271682       -9.1729965347  MEOH      3220            0.0000000000
     49187      3912  MEOH      H1B             1.8362536275       21.3885890554       -8.0197857227  MEOH      3220            0.0000000000
     49188      3912  MEOH      H1C             1.0007888584       19.9397028427       -8.7159390167  MEOH      3220            0.0000000000
     49189      3912  MEOH      LP1A            2.3341974195       19.2013254782       -7.2957043314  MEOH      3220            0.0000000000
     49190      3912  MEOH      LP1B            2.6191982342       19.7305644314       -7.0288152798  MEOH      3220            0.0000000000
     49191      3913  MEOH      C1             -3.2604483881      -26.6831750670       -1.6670857559  MEOH      3221            0.0000000000
     49192      3913  MEOH      DC1            -3.2828027773      -26.6735474906       -1.6879490193  MEOH      3221            0.0000000000
     49193      3913  MEOH      O1             -4.3736961247      -26.9139240291       -2.5389985739  MEOH      3221            0.0000000000
     49194      3913  MEOH      DO1            -4.3867055831      -26.9032471710       -2.5569558240  MEOH      3221            0.0000000000
     49195      3913  MEOH      HO1            -4.4926030992      -26.1188619088       -3.0818036567  MEOH      3221            0.0000000000
     49196      3913  MEOH      HO2            -4.2352424215      -27.7884602993       -2.9351259325  MEOH      3221            0.0000000000
     49197      3913  MEOH      H1A            -3.1855236002      -27.5014682709       -0.9193535117  MEOH      3221            0.0000000000
     49198      3913  MEOH      H1B            -3.3889707840      -25.7244778457       -1.1205488115  MEOH      3221            0.0000000000
     49199      3913  MEOH      H1C            -2.3113567841      -26.6515335266       -2.2437528538  MEOH      3221            0.0000000000
     49200      3913  MEOH      LP1A           -4.2641210462      -27.0627611586       -2.8362203952  MEOH      3221            0.0000000000
     49201      3913  MEOH      LP1B           -4.6706620467      -26.8141108736       -2.3829582740  MEOH      3221            0.0000000000
     49202      3914  MEOH      C1             -6.5711992887       15.7629310200       10.4066401214  MEOH      3222            0.0000000000
     49203      3914  MEOH      DC1            -6.5709644396       15.7699953129       10.4104977231  MEOH      3222            0.0000000000
     49204      3914  MEOH      O1             -6.4914726156       15.1805703509       11.7123708504  MEOH      3222            0.0000000000
     49205      3914  MEOH      DO1            -6.4957001984       15.1917371647       11.7191594116  MEOH      3222            0.0000000000
     49206      3914  MEOH      HO1            -5.5560088166       15.1121622480       11.9596112440  MEOH      3222            0.0000000000
     49207      3914  MEOH      HO2            -7.1545362198       15.6202900824       12.2672521129  MEOH      3222            0.0000000000
     49208      3914  MEOH      H1A            -7.6146118223       15.6891272581       10.0322549063  MEOH      3222            0.0000000000
     49209      3914  MEOH      H1B            -5.9061286323       15.2198768776        9.7015910290  MEOH      3222            0.0000000000
     49210      3914  MEOH      H1C            -6.2742720500       16.8328611139       10.4441209159  MEOH      3222            0.0000000000
     49211      3914  MEOH      LP1A           -6.5041678852       15.4312954285       11.9562473879  MEOH      3222            0.0000000000
     49212      3914  MEOH      LP1B           -6.4768995669       14.8317811645       11.6871968613  MEOH      3222            0.0000000000
     49213      3915  MEOH      C1            -33.4863565644       -1.3762523696        6.1996178133  MEOH      3223            0.0000000000
     49214      3915  MEOH      DC1           -33.4870402983       -1.3794617538        6.1894599005  MEOH      3223            0.0000000000
     49215      3915  MEOH      O1            -33.3610613886       -0.6324829533        7.4144283998  MEOH      3223            0.0000000000
     49216      3915  MEOH      DO1           -33.3671953080       -0.6362237390        7.4088189589  MEOH      3223            0.0000000000
     49217      3915  MEOH      HO1           -32.8424735300        0.1670510761        7.2335638911  MEOH      3223            0.0000000000
     49218      3915  MEOH      HO2           -34.2563986168       -0.5644872769        7.7813723134  MEOH      3223            0.0000000000
     49219      3915  MEOH      H1A           -33.9835410624       -2.3460497299        6.4155383014  MEOH      3223            0.0000000000
     49220      3915  MEOH      H1B           -32.4815934051       -1.5786331904        5.7708824663  MEOH      3223            0.0000000000
     49221      3915  MEOH      H1C           -34.1015678463       -0.8085337532        5.4691853036  MEOH      3223            0.0000000000
     49222      3915  MEOH      LP1A          -33.6300840871       -0.4110497418        7.4475058932  MEOH      3223            0.0000000000
     49223      3915  MEOH      LP1B          -33.0771954199       -0.7373656398        7.5902684803  MEOH      3223            0.0000000000
     49224      3916  MEOH      C1             31.5680829500      -11.8141005452      -17.9370056598  MEOH      3224            0.0000000000
     49225      3916  MEOH      DC1            31.5459969930      -11.8331115604      -17.9197302935  MEOH      3224            0.0000000000
     49226      3916  MEOH      O1             31.3889126978      -13.2361611651      -17.9536701800  MEOH      3224            0.0000000000
     49227      3916  MEOH      DO1            31.3804861455      -13.2442478802      -17.9331521708  MEOH      3224            0.0000000000
     49228      3916  MEOH      HO1            32.1834065985      -13.6491970414      -17.5807347866  MEOH      3224            0.0000000000
     49229      3916  MEOH      HO2            30.4886189888      -13.4283363069      -17.6479906872  MEOH      3224            0.0000000000
     49230      3916  MEOH      H1A            30.8767451380      -11.3381143164      -18.6648862404  MEOH      3224            0.0000000000
     49231      3916  MEOH      H1B            32.6075719353      -11.5426225187      -18.2199956458  MEOH      3224            0.0000000000
     49232      3916  MEOH      H1C            31.3932095219      -11.4043520754      -16.9192402270  MEOH      3224            0.0000000000
     49233      3916  MEOH      LP1A           31.2348559584      -13.3408849583      -17.6573604634  MEOH      3224            0.0000000000
     49234      3916  MEOH      LP1B           31.5026569968      -13.3675938227      -18.2574590722  MEOH      3224            0.0000000000
     49235      3917  MEOH      C1             31.8090136321       18.5820535904       31.6218546571  MEOH      3225            0.0000000000
     49236      3917  MEOH      DC1            31.8135507239       18.5528258025       31.6231663867  MEOH      3225            0.0000000000
     49237      3917  MEOH      O1             31.2514610164       19.8202142744       31.1848960244  MEOH      3225            0.0000000000
     49238      3917  MEOH      DO1            31.2554419945       19.7911669006       31.1833946732  MEOH      3225            0.0000000000
     49239      3917  MEOH      HO1            30.7331984482       20.2185747894       31.9015638773  MEOH      3225            0.0000000000
     49240      3917  MEOH      HO2            31.9967256526       20.3210464988       30.8179522887  MEOH      3225            0.0000000000
     49241      3917  MEOH      H1A            32.3562300450       18.1132591535       30.7762146785  MEOH      3225            0.0000000000
     49242      3917  MEOH      H1B            30.9922588969       17.9093204419       31.9604736387  MEOH      3225            0.0000000000
     49243      3917  MEOH      H1C            32.5265520835       18.7561187057       32.4520118151  MEOH      3225            0.0000000000
     49244      3917  MEOH      LP1A           31.4752519013       20.0815535021       31.2490789500  MEOH      3225            0.0000000000
     49245      3917  MEOH      LP1B           30.9389957332       19.7652617438       31.0370932295  MEOH      3225            0.0000000000
     49246      3918  MEOH      C1             16.1174217485      -10.7011005104      -18.2369433012  MEOH      3226            0.0000000000
     49247      3918  MEOH      DC1            16.1320146431      -10.7229664870      -18.2286441305  MEOH      3226            0.0000000000
     49248      3918  MEOH      O1             17.5298985990      -10.5808183914      -18.0502089809  MEOH      3226            0.0000000000
     49249      3918  MEOH      DO1            17.5443525645      -10.5890561748      -18.0434650849  MEOH      3226            0.0000000000
     49250      3918  MEOH      HO1            17.8652981771      -11.3782364344      -17.6114247654  MEOH      3226            0.0000000000
     49251      3918  MEOH      HO2            17.8933996559      -10.2505833695      -18.8866967653  MEOH      3226            0.0000000000
     49252      3918  MEOH      H1A            15.7041931475       -9.7590205925      -18.6565247025  MEOH      3226            0.0000000000
     49253      3918  MEOH      H1B            15.6313226911      -10.9106329910      -17.2601501573  MEOH      3226            0.0000000000
     49254      3918  MEOH      H1C            15.8778340428      -11.5144146676      -18.9548839778  MEOH      3226            0.0000000000
     49255      3918  MEOH      LP1A           17.6987258717      -10.7055918899      -18.3302606299  MEOH      3226            0.0000000000
     49256      3918  MEOH      LP1B           17.5973562476      -10.4255622927      -17.7438676526  MEOH      3226            0.0000000000
     49257      3919  MEOH      C1              9.3029965158       28.7391709664      -18.2340604843  MEOH      3227            0.0000000000
     49258      3919  MEOH      DC1             9.3076963747       28.7499464242      -18.2383806407  MEOH      3227            0.0000000000
     49259      3919  MEOH      O1              8.6110718433       27.5404272616      -17.8714581244  MEOH      3227            0.0000000000
     49260      3919  MEOH      DO1             8.6204276031       27.5474969283      -17.8851487177  MEOH      3227            0.0000000000
     49261      3919  MEOH      HO1             7.6767392561       27.7411619121      -17.7052407469  MEOH      3227            0.0000000000
     49262      3919  MEOH      HO2             8.8660770785       26.8674144240      -18.5217857734  MEOH      3227            0.0000000000
     49263      3919  MEOH      H1A            10.3998127449       28.5732927705      -18.1724197083  MEOH      3227            0.0000000000
     49264      3919  MEOH      H1B             9.0586119218       29.5658232161      -17.5331730264  MEOH      3227            0.0000000000
     49265      3919  MEOH      H1C             9.0346347241       29.0323716497      -19.2715267768  MEOH      3227            0.0000000000
     49266      3919  MEOH      LP1A            8.4896320201       27.3808683151      -18.1583262334  MEOH      3227            0.0000000000
     49267      3919  MEOH      LP1B            8.6264940133       27.4934520488      -17.5249678849  MEOH      3227            0.0000000000
     49268      3920  MEOH      C1             10.3932864543      -28.0009417876        6.2521993627  MEOH      3228            0.0000000000
     49269      3920  MEOH      DC1            10.3999490060      -28.0061027598        6.2551903214  MEOH      3228            0.0000000000
     49270      3920  MEOH      O1              9.1764839738      -28.0414118208        5.5110937898  MEOH      3228            0.0000000000
     49271      3920  MEOH      DO1             9.1817942611      -28.0377508670        5.5206682138  MEOH      3228            0.0000000000
     49272      3920  MEOH      HO1             8.5164749849      -28.5515324801        6.0061342414  MEOH      3228            0.0000000000
     49273      3920  MEOH      HO2             8.9869103792      -27.1232740890        5.2621260052  MEOH      3228            0.0000000000
     49274      3920  MEOH      H1A            11.1797353085      -27.5182109283        5.6334990174  MEOH      3228            0.0000000000
     49275      3920  MEOH      H1B            10.7173968534      -29.0317876926        6.5103275692  MEOH      3228            0.0000000000
     49276      3920  MEOH      H1C            10.2564753137      -27.4028132358        7.1783990969  MEOH      3228            0.0000000000
     49277      3920  MEOH      LP1A            8.9763880909      -27.7665989346        5.5943975426  MEOH      3228            0.0000000000
     49278      3920  MEOH      LP1B            9.1770329067      -28.3167401457        5.2950058166  MEOH      3228            0.0000000000
     49279      3921  MEOH      C1             -4.6371798082       31.9184188701      -28.7952406711  MEOH      3229            0.0000000000
     49280      3921  MEOH      DC1            -4.6283131562       31.9204515626      -28.7991266024  MEOH      3229            0.0000000000
     49281      3921  MEOH      O1             -4.9070841578       33.0492302311      -27.9688086922  MEOH      3229            0.0000000000
     49282      3921  MEOH      DO1            -4.8932644893       33.0420141427      -27.9670046767  MEOH      3229            0.0000000000
     49283      3921  MEOH      HO1            -5.8158623597       32.9739691000      -27.6381155687  MEOH      3229            0.0000000000
     49284      3921  MEOH      HO2            -4.1583354582       33.1274193467      -27.3571209878  MEOH      3229            0.0000000000
     49285      3921  MEOH      H1A            -3.6829295537       32.0788459812      -29.3411258196  MEOH      3229            0.0000000000
     49286      3921  MEOH      H1B            -5.4533073655       31.7896930192      -29.5379966648  MEOH      3229            0.0000000000
     49287      3921  MEOH      H1C            -4.5543332753       30.9980061138      -28.1785577624  MEOH      3229            0.0000000000
     49288      3921  MEOH      LP1A           -4.8152747182       32.9804746948      -27.6381370983  MEOH      3229            0.0000000000
     49289      3921  MEOH      LP1B           -5.0335872801       33.3117292773      -28.1626932218  MEOH      3229            0.0000000000
     49290      3922  MEOH      C1              6.9623974328      -27.5802515797        7.6396359094  MEOH      3230            0.0000000000
     49291      3922  MEOH      DC1             6.9597902737      -27.5833219349        7.6475237169  MEOH      3230            0.0000000000
     49292      3922  MEOH      O1              6.7887244286      -28.8249082444        8.3177704783  MEOH      3230            0.0000000000
     49293      3922  MEOH      DO1             6.7855530344      -28.8257415842        8.3218647094  MEOH      3230            0.0000000000
     49294      3922  MEOH      HO1             7.2496322982      -29.5073178016        7.8051486560  MEOH      3230            0.0000000000
     49295      3922  MEOH      HO2             7.0230465677      -28.6618367505        9.2448092170  MEOH      3230            0.0000000000
     49296      3922  MEOH      H1A             6.3926183297      -26.7787964865        8.1566876554  MEOH      3230            0.0000000000
     49297      3922  MEOH      H1B             6.5962173940      -27.6622237554        6.5939238354  MEOH      3230            0.0000000000
     49298      3922  MEOH      H1C             8.0273518202      -27.2637229412        7.6413019189  MEOH      3230            0.0000000000
     49299      3922  MEOH      LP1A            7.0454361793      -28.8708942603        8.5511893366  MEOH      3230            0.0000000000
     49300      3922  MEOH      LP1B            6.4967224160      -28.9823159737        8.2061567184  MEOH      3230            0.0000000000
     49301      3923  MEOH      C1              8.7326387573       23.8982826763      -24.9625059016  MEOH      3231            0.0000000000
     49302      3923  MEOH      DC1             8.7320362657       23.8937382874      -24.9721264986  MEOH      3231            0.0000000000
     49303      3923  MEOH      O1              7.6215331948       23.0378029477      -24.7250805088  MEOH      3231            0.0000000000
     49304      3923  MEOH      DO1             7.6323431176       23.0295767329      -24.7282466489  MEOH      3231            0.0000000000
     49305      3923  MEOH      HO1             7.0539875066       23.0566660977      -25.5114875748  MEOH      3231            0.0000000000
     49306      3923  MEOH      HO2             7.9839388174       22.2080949765      -24.3770189504  MEOH      3231            0.0000000000
     49307      3923  MEOH      H1A             9.2991740152       24.0666820852      -24.0217612812  MEOH      3231            0.0000000000
     49308      3923  MEOH      H1B             8.3810078643       24.8818267172      -25.3410793242  MEOH      3231            0.0000000000
     49309      3923  MEOH      H1C             9.4080972691       23.4332400237      -25.7120471817  MEOH      3231            0.0000000000
     49310      3923  MEOH      LP1A            7.6984267448       22.7120234145      -24.8273305831  MEOH      3231            0.0000000000
     49311      3923  MEOH      LP1B            7.3621484148       23.2165499166      -24.5725385244  MEOH      3231            0.0000000000
     49312      3924  MEOH      C1             34.6236824348      -30.2872555266       -2.8797188609  MEOH      3232            0.0000000000
     49313      3924  MEOH      DC1            34.6283375763      -30.2841945728       -2.8766334417  MEOH      3232            0.0000000000
     49314      3924  MEOH      O1             35.4679146974      -29.2352412672       -2.4201181649  MEOH      3232            0.0000000000
     49315      3924  MEOH      DO1            35.4757686961      -29.2266264458       -2.4267576689  MEOH      3232            0.0000000000
     49316      3924  MEOH      HO1            36.1773986272      -29.1555795698       -3.0767661436  MEOH      3232            0.0000000000
     49317      3924  MEOH      HO2            34.8766934339      -28.4897201891       -2.2315558680  MEOH      3232            0.0000000000
     49318      3924  MEOH      H1A            33.8424901997      -30.5246764823       -2.1262661534  MEOH      3232            0.0000000000
     49319      3924  MEOH      H1B            35.2318597450      -31.1999040000       -3.0572410380  MEOH      3232            0.0000000000
     49320      3924  MEOH      H1C            34.1247217133      -29.9775278824       -3.8228137591  MEOH      3232            0.0000000000
     49321      3924  MEOH      LP1A           35.3554159812      -28.9282471655       -2.5450127619  MEOH      3232            0.0000000000
     49322      3924  MEOH      LP1B           35.7154653170      -29.3640404200       -2.2088612858  MEOH      3232            0.0000000000
     49323      3925  MEOH      C1            -12.8814246013      -27.2043681461       26.2351755896  MEOH      3233            0.0000000000
     49324      3925  MEOH      DC1           -12.8720020662      -27.2167009320       26.2291660397  MEOH      3233            0.0000000000
     49325      3925  MEOH      O1            -12.3822783830      -28.5313375715       26.4185333497  MEOH      3233            0.0000000000
     49326      3925  MEOH      DO1           -12.3725499600      -28.5370336592       26.4154690254  MEOH      3233            0.0000000000
     49327      3925  MEOH      HO1           -11.8227313905      -28.7487942541       25.6566148791  MEOH      3233            0.0000000000
     49328      3925  MEOH      HO2           -12.0300951410      -28.5578672945       27.3219508268  MEOH      3233            0.0000000000
     49329      3925  MEOH      H1A           -13.6234456601      -26.9621820391       27.0257903111  MEOH      3233            0.0000000000
     49330      3925  MEOH      H1B           -13.3938188078      -27.1007604915       25.2548498110  MEOH      3233            0.0000000000
     49331      3925  MEOH      H1C           -12.0436063048      -26.4750438588       26.2567993378  MEOH      3233            0.0000000000
     49332      3925  MEOH      LP1A          -12.0812883604      -28.5224290751       26.5969307852  MEOH      3233            0.0000000000
     49333      3925  MEOH      LP1B          -12.6053350550      -28.7632338254       26.2808022767  MEOH      3233            0.0000000000
     49334      3926  MEOH      C1            -32.0923736979       33.0518028531       -5.7892783218  MEOH      3234            0.0000000000
     49335      3926  MEOH      DC1           -32.0880182548       33.0578815168       -5.7839216452  MEOH      3234            0.0000000000
     49336      3926  MEOH      O1            -32.7834237648       32.6040376050       -6.9435885002  MEOH      3234            0.0000000000
     49337      3926  MEOH      DO1           -32.7819331073       32.6127340208       -6.9414373193  MEOH      3234            0.0000000000
     49338      3926  MEOH      HO1           -32.1569576619       32.6236291092       -7.6838968108  MEOH      3234            0.0000000000
     49339      3926  MEOH      HO2           -33.1832435354       31.7572889077       -6.6904861586  MEOH      3234            0.0000000000
     49340      3926  MEOH      H1A           -32.7875111800       33.0007727441       -4.9241189088  MEOH      3234            0.0000000000
     49341      3926  MEOH      H1B           -31.7555877845       34.1006735110       -5.9333845031  MEOH      3234            0.0000000000
     49342      3926  MEOH      H1C           -31.2201635334       32.3902566693       -5.5997339258  MEOH      3234            0.0000000000
     49343      3926  MEOH      LP1A          -32.7577766490       32.2560566864       -6.9710021053  MEOH      3234            0.0000000000
     49344      3926  MEOH      LP1B          -32.9352878039       32.8750295959       -7.1048356847  MEOH      3234            0.0000000000
     49345      3927  MEOH      C1            -35.6801848948      -13.3099831328       -5.3697253153  MEOH      3235            0.0000000000
     49346      3927  MEOH      DC1           -35.6843339394      -13.3218919478       -5.3735951728  MEOH      3235            0.0000000000
     49347      3927  MEOH      O1            -36.8873904478      -12.6288332901       -5.0185413235  MEOH      3235            0.0000000000
     49348      3927  MEOH      DO1           -36.9031463955      -12.6548147072       -5.0270704451  MEOH      3235            0.0000000000
     49349      3927  MEOH      HO1           -37.3047410936      -12.2820703905       -5.8225773494  MEOH      3235            0.0000000000
     49350      3927  MEOH      HO2           -37.3454408337      -13.1620855036       -4.3501612513  MEOH      3235            0.0000000000
     49351      3927  MEOH      H1A           -35.0339158162      -13.3996638279       -4.4704952826  MEOH      3235            0.0000000000
     49352      3927  MEOH      H1B           -35.1234633417      -12.7324345368       -6.1383733047  MEOH      3235            0.0000000000
     49353      3927  MEOH      H1C           -35.9131637427      -14.3251054435       -5.7564662531  MEOH      3235            0.0000000000
     49354      3927  MEOH      LP1A          -37.1556646023      -12.8536166356       -5.0173473243  MEOH      3235            0.0000000000
     49355      3927  MEOH      LP1B          -36.8193977558      -12.2924388760       -4.9498696991  MEOH      3235            0.0000000000
     49356      3928  MEOH      C1            -29.9018179436      -26.7940130030      -18.7867584957  MEOH      3236            0.0000000000
     49357      3928  MEOH      DC1           -29.8999671029      -26.7893324450      -18.7819183809  MEOH      3236            0.0000000000
     49358      3928  MEOH      O1            -30.2547667833      -25.5010780834      -19.2811732900  MEOH      3236            0.0000000000
     49359      3928  MEOH      DO1           -30.2543393249      -25.4997156840      -19.2801655739  MEOH      3236            0.0000000000
     49360      3928  MEOH      HO1           -30.7945736663      -25.0486439832      -18.6142310774  MEOH      3236            0.0000000000
     49361      3928  MEOH      HO2           -29.4373234104      -25.1030640999      -19.6192135260  MEOH      3236            0.0000000000
     49362      3928  MEOH      H1A           -29.4971335481      -27.4203355784      -19.6103309411  MEOH      3236            0.0000000000
     49363      3928  MEOH      H1B           -30.7992697294      -27.3230593580      -18.4007387463  MEOH      3236            0.0000000000
     49364      3928  MEOH      H1C           -29.1490997383      -26.6972774495      -17.9753532109  MEOH      3236            0.0000000000
     49365      3928  MEOH      LP1A          -30.0092579762      -25.2679046613      -19.1925415751  MEOH      3236            0.0000000000
     49366      3928  MEOH      LP1B          -30.5536443241      -25.5196876616      -19.4623524808  MEOH      3236            0.0000000000
     49367      3929  MEOH      C1            -14.6313332661      -31.7464149038      -25.3926887981  MEOH      3237            0.0000000000
     49368      3929  MEOH      DC1           -14.6372795321      -31.7693722702      -25.3828700593  MEOH      3237            0.0000000000
     49369      3929  MEOH      O1            -14.3235431173      -30.6789836163      -24.4970847768  MEOH      3237            0.0000000000
     49370      3929  MEOH      DO1           -14.3285114010      -30.6954844001      -24.4936142364  MEOH      3237            0.0000000000
     49371      3929  MEOH      HO1           -13.7222772833      -30.0723930990      -24.9568970673  MEOH      3237            0.0000000000
     49372      3929  MEOH      HO2           -15.1760740116      -30.3613930365      -24.1605921353  MEOH      3237            0.0000000000
     49373      3929  MEOH      H1A           -15.2282914546      -32.5219788766      -24.8668918361  MEOH      3237            0.0000000000
     49374      3929  MEOH      H1B           -13.6856436671      -32.1916219841      -25.7692294199  MEOH      3237            0.0000000000
     49375      3929  MEOH      H1C           -15.2264501939      -31.3612567217      -26.2481477495  MEOH      3237            0.0000000000
     49376      3929  MEOH      LP1A          -14.5589370729      -30.4222554096      -24.5314404680  MEOH      3237            0.0000000000
     49377      3929  MEOH      LP1B          -14.0431882020      -30.7614162841      -24.3044556596  MEOH      3237            0.0000000000
     49378      3930  MEOH      C1              6.6365994334       34.7132478945      -22.9391491052  MEOH      3238            0.0000000000
     49379      3930  MEOH      DC1             6.6244754920       34.7085213016      -22.9413907349  MEOH      3238            0.0000000000
     49380      3930  MEOH      O1              7.6497417946       34.0427403998      -23.6912560937  MEOH      3238            0.0000000000
     49381      3930  MEOH      DO1             7.6369036462       34.0298219923      -23.6878191846  MEOH      3238            0.0000000000
     49382      3930  MEOH      HO1             8.4650601380       34.0657500518      -23.1662546120  MEOH      3238            0.0000000000
     49383      3930  MEOH      HO2             7.2656214834       33.2016496445      -23.9843736943  MEOH      3238            0.0000000000
     49384      3930  MEOH      H1A             5.7024390544       34.7746181353      -23.5373957771  MEOH      3238            0.0000000000
     49385      3930  MEOH      H1B             6.9687329904       35.7425189189      -22.6849651981  MEOH      3238            0.0000000000
     49386      3930  MEOH      H1C             6.4302190449       34.1567174948      -21.9999994627  MEOH      3238            0.0000000000
     49387      3930  MEOH      LP1A            7.6475956294       33.7007780450      -23.6167098539  MEOH      3238            0.0000000000
     49388      3930  MEOH      LP1B            7.8140879105       34.2703775416      -23.9002338099  MEOH      3238            0.0000000000
     49389      3931  MEOH      C1             14.7312408854       -5.9560363827        6.9820766233  MEOH      3239            0.0000000000
     49390      3931  MEOH      DC1            14.7354937470       -5.9637359646        6.9680284705  MEOH      3239            0.0000000000
     49391      3931  MEOH      O1             13.5499314929       -5.6328453584        6.2548249046  MEOH      3239            0.0000000000
     49392      3931  MEOH      DO1            13.5554928032       -5.6365955142        6.2350811994  MEOH      3239            0.0000000000
     49393      3931  MEOH      HO1            12.8195434809       -5.6998693547        6.8896013507  MEOH      3239            0.0000000000
     49394      3931  MEOH      HO2            13.7315163316       -4.7754314415        5.8391708158  MEOH      3239            0.0000000000
     49395      3931  MEOH      H1A            15.6049209440       -5.9179217267        6.2968383960  MEOH      3239            0.0000000000
     49396      3931  MEOH      H1B            14.6302357397       -6.9760318444        7.4107119239  MEOH      3239            0.0000000000
     49397      3931  MEOH      H1C            14.8864104595       -5.2300669534        7.8086428891  MEOH      3239            0.0000000000
     49398      3931  MEOH      LP1A           13.4925033012       -5.2878033289        6.2669904581  MEOH      3239            0.0000000000
     49399      3931  MEOH      LP1B           13.4150707859       -5.9219951385        6.1109326034  MEOH      3239            0.0000000000
     49400      3932  MEOH      C1              9.0066667006      -31.1402414487      -29.6703252123  MEOH      3240            0.0000000000
     49401      3932  MEOH      DC1             9.0096190029      -31.1311375040      -29.6741133210  MEOH      3240            0.0000000000
     49402      3932  MEOH      O1              7.9762763807      -32.0685521538      -29.3258542455  MEOH      3240            0.0000000000
     49403      3932  MEOH      DO1             7.9795024693      -32.0608692921      -29.3222974758  MEOH      3240            0.0000000000
     49404      3932  MEOH      HO1             7.2918491981      -32.0316389245      -30.0122191959  MEOH      3240            0.0000000000
     49405      3932  MEOH      HO2             8.4297724257      -32.9080303639      -29.1511611642  MEOH      3240            0.0000000000
     49406      3932  MEOH      H1A             9.7623890041      -31.1180848661      -28.8562528036  MEOH      3240            0.0000000000
     49407      3932  MEOH      H1B             8.5810209862      -30.1218128391      -29.7966180988  MEOH      3240            0.0000000000
     49408      3932  MEOH      H1C             9.5026942539      -31.4533237354      -30.6138596047  MEOH      3240            0.0000000000
     49409      3932  MEOH      LP1A            8.0488631717      -32.3833581223      -29.4604958438  MEOH      3240            0.0000000000
     49410      3932  MEOH      LP1B            7.7368595603      -31.9121936679      -29.1240335082  MEOH      3240            0.0000000000
     49411      3933  MEOH      C1             11.9982494478      -11.2809898118      -25.6007047531  MEOH      3241            0.0000000000
     49412      3933  MEOH      DC1            11.9918345386      -11.2715748716      -25.5970152141  MEOH      3241            0.0000000000
     49413      3933  MEOH      O1             13.1526195127      -10.6677918218      -25.0343914253  MEOH      3241            0.0000000000
     49414      3933  MEOH      DO1            13.1446219537      -10.6419366519      -25.0195757961  MEOH      3241            0.0000000000
     49415      3933  MEOH      HO1            13.8977477074      -10.9918285049      -25.5641878033  MEOH      3241            0.0000000000
     49416      3933  MEOH      HO2            12.9427853301       -9.7274318555      -24.9221740041  MEOH      3241            0.0000000000
     49417      3933  MEOH      H1A            11.1503210500      -11.1912145558      -24.8884696536  MEOH      3241            0.0000000000
     49418      3933  MEOH      H1B            12.1991722852      -12.3569869667      -25.7909181499  MEOH      3241            0.0000000000
     49419      3933  MEOH      H1C            11.7303265212      -10.7933383379      -26.5623358390  MEOH      3241            0.0000000000
     49420      3933  MEOH      LP1A           13.2114608893      -10.3587675725      -25.1878244914  MEOH      3241            0.0000000000
     49421      3933  MEOH      LP1B           13.2811717343      -10.8684464904      -24.7780478467  MEOH      3241            0.0000000000
     49422      3934  MEOH      C1             32.8369143528      -26.0002841768      -16.1508364317  MEOH      3242            0.0000000000
     49423      3934  MEOH      DC1            32.8337023875      -25.9758121298      -16.1296399598  MEOH      3242            0.0000000000
     49424      3934  MEOH      O1             32.6659706404      -24.7319137196      -15.5156787984  MEOH      3242            0.0000000000
     49425      3934  MEOH      DO1            32.6770368643      -24.7175864444      -15.4897226438  MEOH      3242            0.0000000000
     49426      3934  MEOH      HO1            32.7765076940      -24.0787967666      -16.2242829230  MEOH      3242            0.0000000000
     49427      3934  MEOH      HO2            31.8072589421      -24.7923988820      -15.0686264916  MEOH      3242            0.0000000000
     49428      3934  MEOH      H1A            32.7436814586      -26.8237103531      -15.4108378100  MEOH      3242            0.0000000000
     49429      3934  MEOH      H1B            33.8363405058      -26.0748620629      -16.6303220975  MEOH      3242            0.0000000000
     49430      3934  MEOH      H1C            32.0704400168      -26.1338301025      -16.9439338908  MEOH      3242            0.0000000000
     49431      3934  MEOH      LP1A           32.3280603819      -24.6407903615      -15.5193107182  MEOH      3242            0.0000000000
     49432      3934  MEOH      LP1B           32.9735132656      -24.6157688508      -15.3955625916  MEOH      3242            0.0000000000
     49433      3935  MEOH      C1             -2.4788268539      -25.9733171058      -25.8884272517  MEOH      3243            0.0000000000
     49434      3935  MEOH      DC1            -2.4746325195      -25.9760411839      -25.9076406455  MEOH      3243            0.0000000000
     49435      3935  MEOH      O1             -2.4029222419      -25.8307904251      -24.4678341330  MEOH      3243            0.0000000000
     49436      3935  MEOH      DO1            -2.4022938814      -25.8303128090      -24.4763399875  MEOH      3243            0.0000000000
     49437      3935  MEOH      HO1            -1.7985482664      -26.5084214903      -24.1265890052  MEOH      3243            0.0000000000
     49438      3935  MEOH      HO2            -2.2380906057      -24.8895772124      -24.3009562713  MEOH      3243            0.0000000000
     49439      3935  MEOH      H1A            -3.2684533663      -25.2974302673      -26.2808402401  MEOH      3243            0.0000000000
     49440      3935  MEOH      H1B            -2.7284939723      -27.0229007790      -26.1536845666  MEOH      3243            0.0000000000
     49441      3935  MEOH      H1C            -1.5051351403      -25.7026475335      -26.3499285321  MEOH      3243            0.0000000000
     49442      3935  MEOH      LP1A           -2.1477592494      -25.6065644252      -24.3834863518  MEOH      3243            0.0000000000
     49443      3935  MEOH      LP1B           -2.6527050878      -26.0223288175      -24.3147930465  MEOH      3243            0.0000000000
     49444      3936  MEOH      C1             34.9006657531      -22.7264049846       31.1518936465  MEOH      3244            0.0000000000
     49445      3936  MEOH      DC1            34.8902956563      -22.7082850540       31.1552782010  MEOH      3244            0.0000000000
     49446      3936  MEOH      O1             36.1453974214      -22.9499031317       30.4929369543  MEOH      3244            0.0000000000
     49447      3936  MEOH      DO1            36.1393002434      -22.9353397397       30.4950576906  MEOH      3244            0.0000000000
     49448      3936  MEOH      HO1            36.8112971912      -23.1545466330       31.1679173509  MEOH      3244            0.0000000000
     49449      3936  MEOH      HO2            35.9600711910      -23.6132481826       29.8099087471  MEOH      3244            0.0000000000
     49450      3936  MEOH      H1A            34.1229223189      -22.5349591594       30.3819685548  MEOH      3244            0.0000000000
     49451      3936  MEOH      H1B            34.9876719783      -21.8534423898       31.8335733557  MEOH      3244            0.0000000000
     49452      3936  MEOH      H1C            34.5979773995      -23.6175845265       31.7422323498  MEOH      3244            0.0000000000
     49453      3936  MEOH      LP1A           36.1759186292      -23.2875740696       30.4060646708  MEOH      3244            0.0000000000
     49454      3936  MEOH      LP1B           36.3188384362      -22.6477953554       30.4590384900  MEOH      3244            0.0000000000
     49455      3937  MEOH      C1             28.2760484763       -5.1017460520      -25.1510229954  MEOH      3245            0.0000000000
     49456      3937  MEOH      DC1            28.2834868834       -5.1153017605      -25.1494560049  MEOH      3245            0.0000000000
     49457      3937  MEOH      O1             28.3129626727       -6.1773523346      -24.2059565382  MEOH      3245            0.0000000000
     49458      3937  MEOH      DO1            28.3086262564       -6.1929352157      -24.2116070394  MEOH      3245            0.0000000000
     49459      3937  MEOH      HO1            29.0773832984       -6.0075923335      -23.6334684168  MEOH      3245            0.0000000000
     49460      3937  MEOH      HO2            27.4314360328       -6.1944442696      -23.8015821451  MEOH      3245            0.0000000000
     49461      3937  MEOH      H1A            27.3711592362       -5.1833836374      -25.7904225333  MEOH      3245            0.0000000000
     49462      3937  MEOH      H1B            29.1840330127       -5.1221653954      -25.7909199653  MEOH      3245            0.0000000000
     49463      3937  MEOH      H1C            28.2434123850       -4.1218262649      -24.6285164415  MEOH      3245            0.0000000000
     49464      3937  MEOH      LP1A           28.1201009346       -6.0967238599      -23.9252371069  MEOH      3245            0.0000000000
     49465      3937  MEOH      LP1B           28.5026615070       -6.4423638669      -24.3335623375  MEOH      3245            0.0000000000
     49466      3938  MEOH      C1              0.9185050598      -11.9808895082       15.8950191219  MEOH      3246            0.0000000000
     49467      3938  MEOH      DC1             0.9227022346      -11.9902760061       15.8867578173  MEOH      3246            0.0000000000
     49468      3938  MEOH      O1             -0.0495915717      -11.0186129214       15.4672289951  MEOH      3246            0.0000000000
     49469      3938  MEOH      DO1            -0.0499394575      -11.0193501958       15.4540486261  MEOH      3246            0.0000000000
     49470      3938  MEOH      HO1            -0.7555703926      -11.5076013635       15.0162476119  MEOH      3246            0.0000000000
     49471      3938  MEOH      HO2            -0.2708645530      -10.5104968600       16.2633171415  MEOH      3246            0.0000000000
     49472      3938  MEOH      H1A             1.7478855805      -11.4601173336       16.4196573726  MEOH      3246            0.0000000000
     49473      3938  MEOH      H1B             1.3313472023      -12.5256502775       15.0191663536  MEOH      3246            0.0000000000
     49474      3938  MEOH      H1C             0.4488381241      -12.6992869194       16.6004545404  MEOH      3246            0.0000000000
     49475      3938  MEOH      LP1A           -0.2868219764      -10.9672323825       15.7193832640  MEOH      3246            0.0000000000
     49476      3938  MEOH      LP1B            0.0319698610      -10.9005237183       15.1480070146  MEOH      3246            0.0000000000
     49477      3939  MEOH      C1             16.1956148486       15.2603026873      -33.5445846673  MEOH      3247            0.0000000000
     49478      3939  MEOH      DC1            16.1836657890       15.2859807298      -33.5375012460  MEOH      3247            0.0000000000
     49479      3939  MEOH      O1             15.8222616454       16.6322076931      -33.6988985834  MEOH      3247            0.0000000000
     49480      3939  MEOH      DO1            15.8122044500       16.6433427559      -33.6900517283  MEOH      3247            0.0000000000
     49481      3939  MEOH      HO1            16.6453526064       17.1444797348      -33.7304996159  MEOH      3247            0.0000000000
     49482      3939  MEOH      HO2            15.2140395859       16.6595860776      -34.4540252952  MEOH      3247            0.0000000000
     49483      3939  MEOH      H1A            15.2909037921       14.6157954550      -33.5238642827  MEOH      3247            0.0000000000
     49484      3939  MEOH      H1B            16.7574135071       15.1120286432      -32.5976326750  MEOH      3247            0.0000000000
     49485      3939  MEOH      H1C            16.8354105826       14.9400859235      -34.3945515154  MEOH      3247            0.0000000000
     49486      3939  MEOH      LP1A           15.7943102454       16.7111656369      -34.0387284854  MEOH      3247            0.0000000000
     49487      3939  MEOH      LP1B           15.7766343482       16.7799006417      -33.3848843438  MEOH      3247            0.0000000000
     49488      3940  MEOH      C1             10.6068487106      -34.9239934338       22.2949773956  MEOH      3248            0.0000000000
     49489      3940  MEOH      DC1            10.5870718203      -34.9080889070       22.2971596611  MEOH      3248            0.0000000000
     49490      3940  MEOH      O1             11.7316077354      -35.2494605445       21.5089519431  MEOH      3248            0.0000000000
     49491      3940  MEOH      DO1            11.7082357278      -35.2331347828       21.5085209467  MEOH      3248            0.0000000000
     49492      3940  MEOH      HO1            12.2992679350      -35.8513130494       22.0153465128  MEOH      3248            0.0000000000
     49493      3940  MEOH      HO2            11.3776604485      -35.5453976131       20.6556978368  MEOH      3248            0.0000000000
     49494      3940  MEOH      H1A            10.0232481651      -34.1299271316       21.7819568184  MEOH      3248            0.0000000000
     49495      3940  MEOH      H1B            10.9300927328      -34.5459692306       23.2884219106  MEOH      3248            0.0000000000
     49496      3940  MEOH      H1C             9.9764729156      -35.8316975385       22.4090853069  MEOH      3248            0.0000000000
     49497      3940  MEOH      LP1A           11.6632848970      -35.5314116760       21.3131572823  MEOH      3248            0.0000000000
     49498      3940  MEOH      LP1B           11.9868684464      -35.0161386022       21.5628299594  MEOH      3248            0.0000000000
     49499      3941  MEOH      C1            -20.9482452799       26.9766298978       19.4675177276  MEOH      3249            0.0000000000
     49500      3941  MEOH      DC1           -20.9335576108       26.9743339442       19.4669574031  MEOH      3249            0.0000000000
     49501      3941  MEOH      O1            -22.1389254434       27.6067862907       18.9904039228  MEOH      3249            0.0000000000
     49502      3941  MEOH      DO1           -22.1289398347       27.6055168988       18.9912842418  MEOH      3249            0.0000000000
     49503      3941  MEOH      HO1           -22.0798608927       28.5615330823       19.1512452838  MEOH      3249            0.0000000000
     49504      3941  MEOH      HO2           -22.2802402040       27.2637207359       18.0941694872  MEOH      3249            0.0000000000
     49505      3941  MEOH      H1A           -21.0807947794       25.8746537607       19.4185256528  MEOH      3249            0.0000000000
     49506      3941  MEOH      H1B           -20.7618929600       27.2531444440       20.5272976674  MEOH      3249            0.0000000000
     49507      3941  MEOH      H1C           -20.0788849064       27.2802544688       18.8459506264  MEOH      3249            0.0000000000
     49508      3941  MEOH      LP1A          -22.1008577341       27.6954789019       18.6539749255  MEOH      3249            0.0000000000
     49509      3941  MEOH      LP1B          -22.3805188479       27.6134554208       19.2435602965  MEOH      3249            0.0000000000
     49510      3942  MEOH      C1             29.9396870738        1.8711734712      -14.5013019918  MEOH      3250            0.0000000000
     49511      3942  MEOH      DC1            29.9438402007        1.8679402878      -14.5114649988  MEOH      3250            0.0000000000
     49512      3942  MEOH      O1             30.3128151560        3.2136964635      -14.1965649018  MEOH      3250            0.0000000000
     49513      3942  MEOH      DO1            30.3224806330        3.2104665689      -14.2033488487  MEOH      3250            0.0000000000
     49514      3942  MEOH      HO1            30.8650175680        3.5533045252      -14.9181179910  MEOH      3250            0.0000000000
     49515      3942  MEOH      HO2            29.4924721570        3.6639574459      -13.9412172696  MEOH      3250            0.0000000000
     49516      3942  MEOH      H1A            29.4151556710        1.4453367770      -13.6193434229  MEOH      3250            0.0000000000
     49517      3942  MEOH      H1B            30.8399679160        1.2541277942      -14.7088352151  MEOH      3250            0.0000000000
     49518      3942  MEOH      H1C            29.2511615852        1.8549841255      -15.3730769381  MEOH      3250            0.0000000000
     49519      3942  MEOH      LP1A           30.0722509956        3.4358095882      -14.3202364205  MEOH      3250            0.0000000000
     49520      3942  MEOH      LP1B           30.6101252702        3.2163299852      -14.0119036970  MEOH      3250            0.0000000000
     49521      3943  MEOH      C1             19.3737578383      -36.7206407838        4.7857948732  MEOH      3251            0.0000000000
     49522      3943  MEOH      DC1            19.3906289864      -36.7185076634        4.7704751447  MEOH      3251            0.0000000000
     49523      3943  MEOH      O1             18.4554180772      -36.4899193879        5.8522913743  MEOH      3251            0.0000000000
     49524      3943  MEOH      DO1            18.4686412425      -36.4889902693        5.8436576957  MEOH      3251            0.0000000000
     49525      3943  MEOH      HO1            17.8518648732      -35.7769541392        5.5909408736  MEOH      3251            0.0000000000
     49526      3943  MEOH      HO2            18.0970932937      -37.3616431934        6.0816403600  MEOH      3251            0.0000000000
     49527      3943  MEOH      H1A            20.1113334139      -37.4880239127        5.1042699964  MEOH      3251            0.0000000000
     49528      3943  MEOH      H1B            19.9064183590      -35.7781701674        4.5361092574  MEOH      3251            0.0000000000
     49529      3943  MEOH      H1C            18.8213716375      -37.0995381532        3.8994386977  MEOH      3251            0.0000000000
     49530      3943  MEOH      LP1A           18.1750976351      -36.6962600443        5.8156309966  MEOH      3251            0.0000000000
     49531      3943  MEOH      LP1B           18.5866304707      -36.2531244603        6.0741279585  MEOH      3251            0.0000000000
     49532      3944  MEOH      C1              4.2422916730      -17.1210330350        6.0125112866  MEOH      3252            0.0000000000
     49533      3944  MEOH      DC1             4.2398698181      -17.1234381584        6.0164631493  MEOH      3252            0.0000000000
     49534      3944  MEOH      O1              4.8743101507      -16.6034217376        4.8493110136  MEOH      3252            0.0000000000
     49535      3944  MEOH      DO1             4.8773393561      -16.6098902591        4.8449110698  MEOH      3252            0.0000000000
     49536      3944  MEOH      HO1             5.8299646025      -16.6336968313        5.0127368032  MEOH      3252            0.0000000000
     49537      3944  MEOH      HO2             4.4836417449      -17.0689157507        4.0932729720  MEOH      3252            0.0000000000
     49538      3944  MEOH      H1A             3.1431677401      -16.9875846313        5.9206466830  MEOH      3252            0.0000000000
     49539      3944  MEOH      H1B             4.6065880893      -16.5723032667        6.9072206042  MEOH      3252            0.0000000000
     49540      3944  MEOH      H1C             4.4902104317      -18.1994303695        6.1120928014  MEOH      3252            0.0000000000
     49541      3944  MEOH      LP1A            4.9347005117      -16.8616717982        4.6209255708  MEOH      3252            0.0000000000
     49542      3944  MEOH      LP1B            4.9100997106      -16.2563527287        4.8769191732  MEOH      3252            0.0000000000
     49543      3945  MEOH      C1            -17.8307945329      -17.6285950682      -12.4998552082  MEOH      3253            0.0000000000
     49544      3945  MEOH      DC1           -17.8379334975      -17.6327668722      -12.4830130340  MEOH      3253            0.0000000000
     49545      3945  MEOH      O1            -17.2597165199      -17.3481995653      -13.7789801359  MEOH      3253            0.0000000000
     49546      3945  MEOH      DO1           -17.2662833335      -17.3489605110      -13.7667519890  MEOH      3253            0.0000000000
     49547      3945  MEOH      HO1           -17.8714496984      -17.6452701214      -14.4706676398  MEOH      3253            0.0000000000
     49548      3945  MEOH      HO2           -16.9607545920      -16.4260884058      -13.7438692241  MEOH      3253            0.0000000000
     49549      3945  MEOH      H1A           -17.0932735086      -17.3812524812      -11.7066305337  MEOH      3253            0.0000000000
     49550      3945  MEOH      H1B           -18.0825282773      -18.7086501779      -12.4332813236  MEOH      3253            0.0000000000
     49551      3945  MEOH      H1C           -18.7442130432      -17.0143972647      -12.3490285368  MEOH      3253            0.0000000000
     49552      3945  MEOH      LP1A          -17.3513237760      -17.0268586558      -13.8831344952  MEOH      3253            0.0000000000
     49553      3945  MEOH      LP1B          -17.0631618079      -17.6180531180      -13.8840767834  MEOH      3253            0.0000000000
     49554      3946  MEOH      C1             14.2721207376       29.1518051633      -19.2371472344  MEOH      3254            0.0000000000
     49555      3946  MEOH      DC1            14.2695868565       29.1593905838      -19.2361232247  MEOH      3254            0.0000000000
     49556      3946  MEOH      O1             13.2337353561       29.8548970824      -18.5459967396  MEOH      3254            0.0000000000
     49557      3946  MEOH      DO1            13.2308932279       29.8638631334      -18.5469050413  MEOH      3254            0.0000000000
     49558      3946  MEOH      HO1            13.3003054018       29.6077086917      -17.6103866023  MEOH      3254            0.0000000000
     49559      3946  MEOH      HO2            13.2933731988       30.7824624787      -18.8234237809  MEOH      3254            0.0000000000
     49560      3946  MEOH      H1A            14.1527334448       29.3037904440      -20.3312076300  MEOH      3254            0.0000000000
     49561      3946  MEOH      H1B            14.2280767062       28.0617039831      -19.0272412073  MEOH      3254            0.0000000000
     49562      3946  MEOH      H1C            15.2657796187       29.5307517037      -18.9156467683  MEOH      3254            0.0000000000
     49563      3946  MEOH      LP1A           13.3502976725       30.1678456386      -18.4412282922  MEOH      3254            0.0000000000
     49564      3946  MEOH      LP1B           12.9401993645       29.6642775581      -18.5450919812  MEOH      3254            0.0000000000
     49565      3947  MEOH      C1             22.9377059650      -25.2828846565       -0.6429829945  MEOH      3255            0.0000000000
     49566      3947  MEOH      DC1            22.9252987155      -25.2812761416       -0.6513946148  MEOH      3255            0.0000000000
     49567      3947  MEOH      O1             21.8403364249      -25.3142877126       -1.5636638478  MEOH      3255            0.0000000000
     49568      3947  MEOH      DO1            21.8305521234      -25.3049069461       -1.5733055457  MEOH      3255            0.0000000000
     49569      3947  MEOH      HO1            21.8775552014      -26.1918590676       -1.9752258498  MEOH      3255            0.0000000000
     49570      3947  MEOH      HO2            21.0559625389      -25.0717378019       -1.0471107066  MEOH      3255            0.0000000000
     49571      3947  MEOH      H1A            22.9853210980      -24.3042406910       -0.1192370735  MEOH      3255            0.0000000000
     49572      3947  MEOH      H1B            23.8970830818      -25.4399139871       -1.1808104183  MEOH      3255            0.0000000000
     49573      3947  MEOH      H1C            22.8164109546      -26.0861126810        0.1149307612  MEOH      3255            0.0000000000
     49574      3947  MEOH      LP1A           21.5522411635      -25.4307312028       -1.4025985382  MEOH      3255            0.0000000000
     49575      3947  MEOH      LP1B           21.9422097110      -25.1923949436       -1.8755355946  MEOH      3255            0.0000000000
     49576      3948  MEOH      C1             22.6588801731       17.4131929852       14.2399250982  MEOH      3256            0.0000000000
     49577      3948  MEOH      DC1            22.6593021669       17.4139864396       14.2496747041  MEOH      3256            0.0000000000
     49578      3948  MEOH      O1             21.7820129990       16.4628262675       13.6443039787  MEOH      3256            0.0000000000
     49579      3948  MEOH      DO1            21.7764975000       16.4725716942       13.6441204060  MEOH      3256            0.0000000000
     49580      3948  MEOH      HO1            21.9643560671       16.4742894258       12.6916657460  MEOH      3256            0.0000000000
     49581      3948  MEOH      HO2            21.9132014637       15.6461027463       14.1509125817  MEOH      3256            0.0000000000
     49582      3948  MEOH      H1A            22.4773141523       17.4161985719       15.3359842878  MEOH      3256            0.0000000000
     49583      3948  MEOH      H1B            22.4673345438       18.4268793030       13.8275280554  MEOH      3256            0.0000000000
     49584      3948  MEOH      H1C            23.7244978420       17.1594036787       14.0545309959  MEOH      3256            0.0000000000
     49585      3948  MEOH      LP1A           21.9328644292       16.1470335281       13.6399690333  MEOH      3256            0.0000000000
     49586      3948  MEOH      LP1B           21.4793293108       16.6163602336       13.5588059895  MEOH      3256            0.0000000000
     49587      3949  MEOH      C1            -26.3342540360       14.5386036133      -29.9358038860  MEOH      3257            0.0000000000
     49588      3949  MEOH      DC1           -26.3338433113       14.5398800995      -29.9312839449  MEOH      3257            0.0000000000
     49589      3949  MEOH      O1            -27.6237804961       15.0548729685      -30.2791029111  MEOH      3257            0.0000000000
     49590      3949  MEOH      DO1           -27.6143896513       15.0640070970      -30.2826973675  MEOH      3257            0.0000000000
     49591      3949  MEOH      HO1           -27.9667287672       15.5871275093      -29.5442617125  MEOH      3257            0.0000000000
     49592      3949  MEOH      HO2           -27.5539681936       15.4017218340      -31.1822762658  MEOH      3257            0.0000000000
     49593      3949  MEOH      H1A           -26.0142630317       13.7871714396      -30.6889814521  MEOH      3257            0.0000000000
     49594      3949  MEOH      H1B           -26.3751514256       14.0300860352      -28.9488599786  MEOH      3257            0.0000000000
     49595      3949  MEOH      H1C           -25.5842009879       15.3578067437      -29.9103547706  MEOH      3257            0.0000000000
     49596      3949  MEOH      LP1A          -27.5900098996       15.3633384225      -30.4409936474  MEOH      3257            0.0000000000
     49597      3949  MEOH      LP1B          -27.8726913173       14.8275794871      -30.1848634481  MEOH      3257            0.0000000000
     49598      3950  MEOH      C1             18.9093105964      -28.2562587168      -35.2074000494  MEOH      3258            0.0000000000
     49599      3950  MEOH      DC1            18.9201032572      -28.2568021691      -35.2020473942  MEOH      3258            0.0000000000
     49600      3950  MEOH      O1             18.4179933891      -28.8431795710      -36.4181544053  MEOH      3258            0.0000000000
     49601      3950  MEOH      DO1            18.4266857679      -28.8363937979      -36.4160027782  MEOH      3258            0.0000000000
     49602      3950  MEOH      HO1            19.1556173065      -29.1838834090      -36.9479957507  MEOH      3258            0.0000000000
     49603      3950  MEOH      HO2            17.6770215096      -29.4164997006      -36.1668285137  MEOH      3258            0.0000000000
     49604      3950  MEOH      H1A            18.0625727056      -27.7809651746      -34.6675371103  MEOH      3258            0.0000000000
     49605      3950  MEOH      H1B            19.6600064251      -27.4696632447      -35.4355323324  MEOH      3258            0.0000000000
     49606      3950  MEOH      H1C            19.3491654911      -29.0325209952      -34.5453837753  MEOH      3258            0.0000000000
     49607      3950  MEOH      LP1A           18.3459604558      -29.1817569362      -36.3664183030  MEOH      3258            0.0000000000
     49608      3950  MEOH      LP1B           18.3971607148      -28.6001328503      -36.6691410409  MEOH      3258            0.0000000000
     49609      3951  MEOH      C1              2.4233331044       15.9234672847       -3.8503861329  MEOH      3259            0.0000000000
     49610      3951  MEOH      DC1             2.4256903454       15.9376812181       -3.8352134798  MEOH      3259            0.0000000000
     49611      3951  MEOH      O1              3.2897284300       15.2389629555       -4.7464771656  MEOH      3259            0.0000000000
     49612      3951  MEOH      DO1             3.2916144338       15.2588807435       -4.7402593231  MEOH      3259            0.0000000000
     49613      3951  MEOH      HO1             3.4160958768       14.3348882502       -4.4184829640  MEOH      3259            0.0000000000
     49614      3951  MEOH      HO2             2.9125755818       15.3687841772       -5.6306729468  MEOH      3259            0.0000000000
     49615      3951  MEOH      H1A             2.3559793728       16.9909133948       -4.1509577164  MEOH      3259            0.0000000000
     49616      3951  MEOH      H1B             2.7993579795       15.8398840352       -2.8083016183  MEOH      3259            0.0000000000
     49617      3951  MEOH      H1C             1.4064892746       15.4781174202       -3.8952539927  MEOH      3259            0.0000000000
     49618      3951  MEOH      LP1A            3.1031491165       15.0862385374       -5.0001766175  MEOH      3259            0.0000000000
     49619      3951  MEOH      LP1B            3.6229200043       15.2858833324       -4.6501347917  MEOH      3259            0.0000000000
     49620      3952  MEOH      C1              8.9748970989       -1.5236412608        5.9947396882  MEOH      3260            0.0000000000
     49621      3952  MEOH      DC1             8.9705409809       -1.5206347226        5.9850189950  MEOH      3260            0.0000000000
     49622      3952  MEOH      O1              8.0623217753       -0.5068200735        5.6031297886  MEOH      3260            0.0000000000
     49623      3952  MEOH      DO1             8.0618768389       -0.5072951265        5.5898940336  MEOH      3260            0.0000000000
     49624      3952  MEOH      HO1             7.6623652136       -0.1758745231        6.4225257805  MEOH      3260            0.0000000000
     49625      3952  MEOH      HO2             8.5759604404        0.0954657164        5.0424809235  MEOH      3260            0.0000000000
     49626      3952  MEOH      H1A             9.4744116269       -1.9698903504        5.1083605446  MEOH      3260            0.0000000000
     49627      3952  MEOH      H1B             8.4416368277       -2.3236096493        6.5515206705  MEOH      3260            0.0000000000
     49628      3952  MEOH      H1C             9.7605608542       -1.0826313451        6.6447887006  MEOH      3260            0.0000000000
     49629      3952  MEOH      LP1A            8.2257973260       -0.1975962889        5.5906239747  MEOH      3260            0.0000000000
     49630      3952  MEOH      LP1B            7.7479324058       -0.6464784065        5.5386714738  MEOH      3260            0.0000000000
     49631      3953  MEOH      C1             -8.2021216273      -25.6069687992      -31.8870604410  MEOH      3261            0.0000000000
     49632      3953  MEOH      DC1            -8.1852910970      -25.6082134825      -31.8897475322  MEOH      3261            0.0000000000
     49633      3953  MEOH      O1             -9.1618904959      -25.1907307490      -30.9146539495  MEOH      3261            0.0000000000
     49634      3953  MEOH      DO1            -9.1453314222      -25.1872207384      -30.9149008975  MEOH      3261            0.0000000000
     49635      3953  MEOH      HO1            -9.5546656204      -24.3590899882      -31.2228768364  MEOH      3261            0.0000000000
     49636      3953  MEOH      HO2            -9.7393336938      -25.9589721067      -30.7832592408  MEOH      3261            0.0000000000
     49637      3953  MEOH      H1A            -7.7375846070      -26.5609576649      -31.5577708992  MEOH      3261            0.0000000000
     49638      3953  MEOH      H1B            -7.4168436674      -24.8291797019      -31.9997708945  MEOH      3261            0.0000000000
     49639      3953  MEOH      H1C            -8.7031550493      -25.7689260321      -32.8653530173  MEOH      3261            0.0000000000
     49640      3953  MEOH      LP1A           -9.4747041339      -25.3294317148      -30.9882044081  MEOH      3261            0.0000000000
     49641      3953  MEOH      LP1B           -9.0075511979      -24.9915214801      -30.6717649866  MEOH      3261            0.0000000000
     49642      3954  MEOH      C1             -6.6623542617        0.4456948185      -11.8125375928  MEOH      3262            0.0000000000
     49643      3954  MEOH      DC1            -6.6543125149        0.4469458343      -11.8147659760  MEOH      3262            0.0000000000
     49644      3954  MEOH      O1             -6.8335199212        1.5716099225      -10.9520807235  MEOH      3262            0.0000000000
     49645      3954  MEOH      DO1            -6.8310533399        1.5824201090      -10.9683321675  MEOH      3262            0.0000000000
     49646      3954  MEOH      HO1            -7.1380511346        1.2266157354      -10.0981839190  MEOH      3262            0.0000000000
     49647      3954  MEOH      HO2            -6.0124907906        2.0849298747      -11.0096462809  MEOH      3262            0.0000000000
     49648      3954  MEOH      H1A            -6.4548342988        0.7947949798      -12.8466485841  MEOH      3262            0.0000000000
     49649      3954  MEOH      H1B            -7.5860170179       -0.1716698090      -11.8179256573  MEOH      3262            0.0000000000
     49650      3954  MEOH      H1C            -5.8105882809       -0.1793668072      -11.4688608861  MEOH      3262            0.0000000000
     49651      3954  MEOH      LP1A           -6.5341492641        1.6407900597      -10.7844760748  MEOH      3262            0.0000000000
     49652      3954  MEOH      LP1B           -7.1582508158        1.6982656901      -10.9838323009  MEOH      3262            0.0000000000
     49653      3955  MEOH      C1             -6.9916556747      -30.9043859632        6.5413294219  MEOH      3263            0.0000000000
     49654      3955  MEOH      DC1            -7.0095871096      -30.9006981079        6.5422421886  MEOH      3263            0.0000000000
     49655      3955  MEOH      O1             -6.6494284007      -29.5175895638        6.4796049497  MEOH      3263            0.0000000000
     49656      3955  MEOH      DO1            -6.6663981574      -29.5112268865        6.4779834030  MEOH      3263            0.0000000000
     49657      3955  MEOH      HO1            -6.0619980215      -29.3571360759        7.2346415238  MEOH      3263            0.0000000000
     49658      3955  MEOH      HO2            -6.2951827504      -29.3798690064        5.5871683596  MEOH      3263            0.0000000000
     49659      3955  MEOH      H1A            -7.5833297213      -31.1831989545        5.6432725537  MEOH      3263            0.0000000000
     49660      3955  MEOH      H1B            -7.5946841344      -31.1247040801        7.4480474629  MEOH      3263            0.0000000000
     49661      3955  MEOH      H1C            -6.0615804022      -31.5115031288        6.5675922321  MEOH      3263            0.0000000000
     49662      3955  MEOH      LP1A           -6.3635657525      -29.4734917012        6.2825315500  MEOH      3263            0.0000000000
     49663      3955  MEOH      LP1B           -6.8844318752      -29.3282913420        6.6569169633  MEOH      3263            0.0000000000
     49664      3956  MEOH      C1              9.8993490285        5.1404464875       30.6875450557  MEOH      3264            0.0000000000
     49665      3956  MEOH      DC1             9.9045349002        5.1464089969       30.6756232418  MEOH      3264            0.0000000000
     49666      3956  MEOH      O1             10.6920514900        3.9538372358       30.7952209528  MEOH      3264            0.0000000000
     49667      3956  MEOH      DO1            10.6840295148        3.9469736407       30.7913107709  MEOH      3264            0.0000000000
     49668      3956  MEOH      HO1            11.4152924285        4.1365796494       31.4152433355  MEOH      3264            0.0000000000
     49669      3956  MEOH      HO2            10.0765606457        3.2176369986       30.9369256894  MEOH      3264            0.0000000000
     49670      3956  MEOH      H1A             9.1660917113        5.0492318607       29.8578857281  MEOH      3264            0.0000000000
     49671      3956  MEOH      H1B            10.5663629338        6.0149771595       30.5306707295  MEOH      3264            0.0000000000
     49672      3956  MEOH      H1C             9.3088164440        5.3220478571       31.6109156255  MEOH      3264            0.0000000000
     49673      3956  MEOH      LP1A           10.5669890434        3.7490402798       31.0500102604  MEOH      3264            0.0000000000
     49674      3956  MEOH      LP1B           10.9427774583        3.9548020814       30.5510170260  MEOH      3264            0.0000000000
     49675      3957  MEOH      C1              0.3813358449       -2.3713507777      -10.9251767021  MEOH      3265            0.0000000000
     49676      3957  MEOH      DC1             0.3895510401       -2.3749754850      -10.9271043308  MEOH      3265            0.0000000000
     49677      3957  MEOH      O1              0.7755217110       -3.5038544718      -10.1476001517  MEOH      3265            0.0000000000
     49678      3957  MEOH      DO1             0.7873017952       -3.5099041059      -10.1515111185  MEOH      3265            0.0000000000
     49679      3957  MEOH      HO1             1.3040741488       -4.0849385930      -10.7166990582  MEOH      3265            0.0000000000
     49680      3957  MEOH      HO2             1.1262514042       -3.1555043669       -9.3130099009  MEOH      3265            0.0000000000
     49681      3957  MEOH      H1A            -0.3447983478       -1.7602473085      -10.3475932149  MEOH      3265            0.0000000000
     49682      3957  MEOH      H1B            -0.0984187037       -2.7058195971      -11.8697862414  MEOH      3265            0.0000000000
     49683      3957  MEOH      H1C             1.2656996935       -1.7438129153      -11.1668744799  MEOH      3265            0.0000000000
     49684      3957  MEOH      LP1A            1.0789052281       -3.4382769582       -9.9858657050  MEOH      3265            0.0000000000
     49685      3957  MEOH      LP1B            0.5326181495       -3.7548450277      -10.1699965959  MEOH      3265            0.0000000000
     49686      3958  MEOH      C1            -11.0560129986       -4.4602320157        1.9658095845  MEOH      3266            0.0000000000
     49687      3958  MEOH      DC1           -11.0625456907       -4.4711546184        1.9618325311  MEOH      3266            0.0000000000
     49688      3958  MEOH      O1            -10.6750499293       -3.2061018369        1.3986048226  MEOH      3266            0.0000000000
     49689      3958  MEOH      DO1           -10.6762904508       -3.2074729489        1.3969648281  MEOH      3266            0.0000000000
     49690      3958  MEOH      HO1           -11.2964727077       -3.0082449393        0.6805613848  MEOH      3266            0.0000000000
     49691      3958  MEOH      HO2           -10.5933410412       -2.5972063350        2.1492511617  MEOH      3266            0.0000000000
     49692      3958  MEOH      H1A           -10.3103855315       -4.7586957950        2.7334553705  MEOH      3266            0.0000000000
     49693      3958  MEOH      H1B           -11.0736179406       -5.2520600133        1.1866950291  MEOH      3266            0.0000000000
     49694      3958  MEOH      H1C           -12.0589414740       -4.3746610165        2.4360574741  MEOH      3266            0.0000000000
     49695      3958  MEOH      LP1A          -10.8350753506       -2.9447222836        1.5676391200  MEOH      3266            0.0000000000
     49696      3958  MEOH      LP1B          -10.4424752533       -3.2565045840        1.1419560682  MEOH      3266            0.0000000000
     49697      3959  MEOH      C1             33.2433684045       -9.0658125834       -3.7380355403  MEOH      3267            0.0000000000
     49698      3959  MEOH      DC1            33.2439815070       -9.0773051502       -3.7495285850  MEOH      3267            0.0000000000
     49699      3959  MEOH      O1             32.8958352862       -8.9667429321       -2.3558529431  MEOH      3267            0.0000000000
     49700      3959  MEOH      DO1            32.8929419975       -8.9740936711       -2.3670052771  MEOH      3267            0.0000000000
     49701      3959  MEOH      HO1            33.2985480762       -9.7077038712       -1.8765833984  MEOH      3267            0.0000000000
     49702      3959  MEOH      HO2            33.1230829105       -8.0591804088       -2.0997498710  MEOH      3267            0.0000000000
     49703      3959  MEOH      H1A            32.7682712580       -8.2220186043       -4.2826596526  MEOH      3267            0.0000000000
     49704      3959  MEOH      H1B            32.8694566290      -10.0208104985       -4.1652239846  MEOH      3267            0.0000000000
     49705      3959  MEOH      H1C            34.3447789014       -8.9909428989       -3.8629773175  MEOH      3267            0.0000000000
     49706      3959  MEOH      LP1A           33.1325162553       -8.7722724824       -2.1865503647  MEOH      3267            0.0000000000
     49707      3959  MEOH      LP1B           32.5949196808       -9.1350689965       -2.2957186396  MEOH      3267            0.0000000000
     49708      3960  MEOH      C1              8.0869321659       25.1971571469      -35.2369392574  MEOH      3268            0.0000000000
     49709      3960  MEOH      DC1             8.0940612360       25.2089476463      -35.2330272171  MEOH      3268            0.0000000000
     49710      3960  MEOH      O1              8.2594856690       26.6143108876      -35.2578630910  MEOH      3268            0.0000000000
     49711      3960  MEOH      DO1             8.2666160209       26.6198968786      -35.2543950667  MEOH      3268            0.0000000000
     49712      3960  MEOH      HO1             7.6887889681       26.9497065943      -35.9668870648  MEOH      3268            0.0000000000
     49713      3960  MEOH      HO2             8.1216762084       26.9170507405      -34.3466786231  MEOH      3268            0.0000000000
     49714      3960  MEOH      H1A             8.6994524766       24.7570068400      -34.4212140727  MEOH      3268            0.0000000000
     49715      3960  MEOH      H1B             8.4130610289       24.7515006281      -36.2009679043  MEOH      3268            0.0000000000
     49716      3960  MEOH      H1C             7.0193487562       24.9481221675      -35.0564725177  MEOH      3268            0.0000000000
     49717      3960  MEOH      LP1A            8.0306812408       26.7659801986      -35.0407342036  MEOH      3268            0.0000000000
     49718      3960  MEOH      LP1B            8.5246751796       26.6994961469      -35.4698017497  MEOH      3268            0.0000000000
     49719      3961  MEOH      C1            -19.6578187409       20.4853325753       10.8537774773  MEOH      3269            0.0000000000
     49720      3961  MEOH      DC1           -19.6606012880       20.4875551291       10.8618771407  MEOH      3269            0.0000000000
     49721      3961  MEOH      O1            -19.0480478949       20.2543638570       12.1260744789  MEOH      3269            0.0000000000
     49722      3961  MEOH      DO1           -19.0427926424       20.2789045470       12.1303420848  MEOH      3269            0.0000000000
     49723      3961  MEOH      HO1           -19.7540556604       20.0027692487       12.7418286413  MEOH      3269            0.0000000000
     49724      3961  MEOH      HO2           -18.3564857168       19.5965819271       11.9529713694  MEOH      3269            0.0000000000
     49725      3961  MEOH      H1A           -18.8734018034       20.6246866645       10.0794445335  MEOH      3269            0.0000000000
     49726      3961  MEOH      H1B           -20.2947824736       21.3949985257       10.8870349935  MEOH      3269            0.0000000000
     49727      3961  MEOH      H1C           -20.2824487160       19.6115123964       10.5698819173  MEOH      3269            0.0000000000
     49728      3961  MEOH      LP1A          -18.9476908086       19.9200485234       12.1517982617  MEOH      3269            0.0000000000
     49729      3961  MEOH      LP1B          -19.0360226008       20.5525425847       12.3089537797  MEOH      3269            0.0000000000
     49730      3962  MEOH      C1             29.9809127332       -7.4715026566      -30.0203267034  MEOH      3270            0.0000000000
     49731      3962  MEOH      DC1            30.0035602327       -7.4696662491      -30.0236901019  MEOH      3270            0.0000000000
     49732      3962  MEOH      O1             29.2087943774       -6.8938125968      -31.0780995005  MEOH      3270            0.0000000000
     49733      3962  MEOH      DO1            29.2377830031       -6.8960410759      -31.0863765920  MEOH      3270            0.0000000000
     49734      3962  MEOH      HO1            28.4385849594       -6.4674362454      -30.6708150042  MEOH      3270            0.0000000000
     49735      3962  MEOH      HO2            29.8220690711       -6.3924697168      -31.6379650796  MEOH      3270            0.0000000000
     49736      3962  MEOH      H1A            30.7221100239       -8.1879872730      -30.4345698359  MEOH      3270            0.0000000000
     49737      3962  MEOH      H1B            29.3135016582       -8.0141219003      -29.3171568705  MEOH      3270            0.0000000000
     49738      3962  MEOH      H1C            30.5120384256       -6.6702431803      -29.4633619374  MEOH      3270            0.0000000000
     49739      3962  MEOH      LP1A           29.3181754579       -6.5674846926      -31.1417067183  MEOH      3270            0.0000000000
     49740      3962  MEOH      LP1B           28.9778919742       -7.1273628726      -31.1990885449  MEOH      3270            0.0000000000
     49741      3963  MEOH      C1             30.3634899135       -5.5571771327       16.8430204248  MEOH      3271            0.0000000000
     49742      3963  MEOH      DC1            30.3725861666       -5.5573244959       16.8339991477  MEOH      3271            0.0000000000
     49743      3963  MEOH      O1             31.3618811124       -6.5364754100       17.1330908268  MEOH      3271            0.0000000000
     49744      3963  MEOH      DO1            31.3693160517       -6.5476986180       17.1242355301  MEOH      3271            0.0000000000
     49745      3963  MEOH      HO1            31.7361546395       -6.2695316129       17.9872338688  MEOH      3271            0.0000000000
     49746      3963  MEOH      HO2            30.9189353270       -7.3951298546       17.0470003112  MEOH      3271            0.0000000000
     49747      3963  MEOH      H1A            29.9237958514       -5.7429677010       15.8397896443  MEOH      3271            0.0000000000
     49748      3963  MEOH      H1B            30.8149747829       -4.5421641009       16.8582177471  MEOH      3271            0.0000000000
     49749      3963  MEOH      H1C            29.5506687865       -5.6115511419       17.5984582334  MEOH      3271            0.0000000000
     49750      3963  MEOH      LP1A           31.2197070158       -6.8041757269       17.3080853027  MEOH      3271            0.0000000000
     49751      3963  MEOH      LP1B           31.6689833356       -6.4383202338       16.9968785442  MEOH      3271            0.0000000000
     49752      3964  MEOH      C1             23.7314262711       -6.6568469287      -23.9503855137  MEOH      3272            0.0000000000
     49753      3964  MEOH      DC1            23.7273526796       -6.6454110086      -23.9261241202  MEOH      3272            0.0000000000
     49754      3964  MEOH      O1             24.4777895525       -5.4547041587      -23.7683688112  MEOH      3272            0.0000000000
     49755      3964  MEOH      DO1            24.4633347111       -5.4433818521      -23.7443597505  MEOH      3272            0.0000000000
     49756      3964  MEOH      HO1            25.3089116067       -5.5926463665      -24.2491058279  MEOH      3272            0.0000000000
     49757      3964  MEOH      HO2            23.8880292310       -4.7334537508      -24.0383329057  MEOH      3272            0.0000000000
     49758      3964  MEOH      H1A            22.7373147191       -6.5656108141      -23.4628004508  MEOH      3272            0.0000000000
     49759      3964  MEOH      H1B            24.2822992058       -7.5224689047      -23.5242885685  MEOH      3272            0.0000000000
     49760      3964  MEOH      H1C            23.5783331722       -6.8632553935      -25.0312550940  MEOH      3272            0.0000000000
     49761      3964  MEOH      LP1A           24.3998997143       -5.2259471601      -24.0215553209  MEOH      3272            0.0000000000
     49762      3964  MEOH      LP1B           24.6723808922       -5.4773693734      -23.4783334711  MEOH      3272            0.0000000000
     49763      3965  MEOH      C1            -30.0485956273       29.4143736557        7.3313646376  MEOH      3273            0.0000000000
     49764      3965  MEOH      DC1           -30.0552626565       29.4072867110        7.3083801797  MEOH      3273            0.0000000000
     49765      3965  MEOH      O1            -29.9074037733       28.0091384007        7.0990455545  MEOH      3273            0.0000000000
     49766      3965  MEOH      DO1           -29.9115350522       28.0066571395        7.0857670093  MEOH      3273            0.0000000000
     49767      3965  MEOH      HO1           -30.1217884779       27.8184779086        6.1724454377  MEOH      3273            0.0000000000
     49768      3965  MEOH      HO2           -29.0302590006       27.7771715372        7.4421321645  MEOH      3273            0.0000000000
     49769      3965  MEOH      H1A           -29.8366860259       29.6297009740        8.4004995533  MEOH      3273            0.0000000000
     49770      3965  MEOH      H1B           -31.0836110406       29.7594279564        7.1215989975  MEOH      3273            0.0000000000
     49771      3965  MEOH      H1C           -29.3248497460       29.9798393886        6.7062555219  MEOH      3273            0.0000000000
     49772      3965  MEOH      LP1A          -29.5788960983       27.9361200024        7.0028633264  MEOH      3273            0.0000000000
     49773      3965  MEOH      LP1B          -30.2092191784       27.8455983990        7.1673253398  MEOH      3273            0.0000000000
     49774      3966  MEOH      C1            -10.8879368074        2.0463901739       -9.4457916415  MEOH      3274            0.0000000000
     49775      3966  MEOH      DC1           -10.9123681447        2.0570090804       -9.4425288134  MEOH      3274            0.0000000000
     49776      3966  MEOH      O1             -9.8481205774        2.4068152167      -10.3574825140  MEOH      3274            0.0000000000
     49777      3966  MEOH      DO1            -9.8573590761        2.4144745772      -10.3510814008  MEOH      3274            0.0000000000
     49778      3966  MEOH      HO1           -10.1834777378        3.0466280448      -11.0048426302  MEOH      3274            0.0000000000
     49779      3966  MEOH      HO2            -9.0627956257        2.5920278893       -9.8190951190  MEOH      3274            0.0000000000
     49780      3966  MEOH      H1A           -10.5655488502        1.1416654593       -8.8873471968  MEOH      3274            0.0000000000
     49781      3966  MEOH      H1B           -11.8146471143        1.7967402162      -10.0054378747  MEOH      3274            0.0000000000
     49782      3966  MEOH      H1C           -11.0714807501        2.8681110841       -8.7209417489  MEOH      3274            0.0000000000
     49783      3966  MEOH      LP1A           -9.6690944828        2.6804785260      -10.2327505991  MEOH      3274            0.0000000000
     49784      3966  MEOH      LP1B           -9.8457007387        2.1865286065      -10.6294530156  MEOH      3274            0.0000000000
     49785      3967  MEOH      C1            -11.0224963376       34.9898803535        8.7696289412  MEOH      3275            0.0000000000
     49786      3967  MEOH      DC1           -11.0212712011       34.9841212041        8.7619567894  MEOH      3275            0.0000000000
     49787      3967  MEOH      O1            -11.6905642949       36.2257828452        9.0173054594  MEOH      3275            0.0000000000
     49788      3967  MEOH      DO1           -11.7034972840       36.2160476920        9.0144069485  MEOH      3275            0.0000000000
     49789      3967  MEOH      HO1           -11.5956112374       36.7901975925        8.2341580212  MEOH      3275            0.0000000000
     49790      3967  MEOH      HO2           -12.5657544891       36.0009721139        9.3700125052  MEOH      3275            0.0000000000
     49791      3967  MEOH      H1A           -11.0082256958       34.3886099258        9.7037548547  MEOH      3275            0.0000000000
     49792      3967  MEOH      H1B            -9.9777124294       35.1838548493        8.4454045124  MEOH      3275            0.0000000000
     49793      3967  MEOH      H1C           -11.5626333086       34.4232284615        7.9812897454  MEOH      3275            0.0000000000
     49794      3967  MEOH      LP1A          -12.0257704473       36.2023864832        8.9193797444  MEOH      3275            0.0000000000
     49795      3967  MEOH      LP1B          -11.4704653925       36.4528850168        9.1672423688  MEOH      3275            0.0000000000
     49796      3968  MEOH      C1             20.7483959377       35.7868540978       20.4592120137  MEOH      3276            0.0000000000
     49797      3968  MEOH      DC1            20.7633556137       35.7741701735       20.4522061871  MEOH      3276            0.0000000000
     49798      3968  MEOH      O1             19.5773205472       35.7855535274       19.6557732810  MEOH      3276            0.0000000000
     49799      3968  MEOH      DO1            19.6007275130       35.7565874601       19.6403910360  MEOH      3276            0.0000000000
     49800      3968  MEOH      HO1            19.0398504205       36.5555516385       19.8989373659  MEOH      3276            0.0000000000
     49801      3968  MEOH      HO2            19.8878969918       35.7543988249       18.7373661509  MEOH      3276            0.0000000000
     49802      3968  MEOH      H1A            21.0852293823       34.7312512125       20.5402476803  MEOH      3276            0.0000000000
     49803      3968  MEOH      H1B            20.5449015825       36.2114843726       21.4654923814  MEOH      3276            0.0000000000
     49804      3968  MEOH      H1C            21.5771675628       36.3740243712       20.0090013254  MEOH      3276            0.0000000000
     49805      3968  MEOH      LP1A           19.6358776288       35.9608335827       19.3585394162  MEOH      3276            0.0000000000
     49806      3968  MEOH      LP1B           19.3249104761       35.6004511881       19.8123819653  MEOH      3276            0.0000000000
     49807      3969  MEOH      C1             15.2733839357       31.9348590929      -20.4078641158  MEOH      3277            0.0000000000
     49808      3969  MEOH      DC1            15.2759681975       31.9348064333      -20.4078124245  MEOH      3277            0.0000000000
     49809      3969  MEOH      O1             16.1535516063       32.9991869399      -20.7528043294  MEOH      3277            0.0000000000
     49810      3969  MEOH      DO1            16.1545819705       33.0019571926      -20.7372958886  MEOH      3277            0.0000000000
     49811      3969  MEOH      HO1            15.6411674705       33.8226636098      -20.7370349780  MEOH      3277            0.0000000000
     49812      3969  MEOH      HO2            16.9658318255       32.8653803735      -20.2397773824  MEOH      3277            0.0000000000
     49813      3969  MEOH      H1A            15.7618575095       30.9704140596      -20.6639116610  MEOH      3277            0.0000000000
     49814      3969  MEOH      H1B            14.3154900551       32.0113712078      -20.9654537601  MEOH      3277            0.0000000000
     49815      3969  MEOH      H1C            15.0658042037       31.9441757606      -19.3164682869  MEOH      3277            0.0000000000
     49816      3969  MEOH      LP1A           16.3070883829       33.1256568346      -20.4648254691  MEOH      3277            0.0000000000
     49817      3969  MEOH      LP1B           16.1566753106       33.0442278451      -21.0998800550  MEOH      3277            0.0000000000
     49818      3970  MEOH      C1              6.8027586395      -24.0329986780       15.8290150376  MEOH      3278            0.0000000000
     49819      3970  MEOH      DC1             6.8050647803      -24.0510309653       15.8327049712  MEOH      3278            0.0000000000
     49820      3970  MEOH      O1              7.4823256045      -25.0194386022       15.0539226826  MEOH      3278            0.0000000000
     49821      3970  MEOH      DO1             7.4954717492      -25.0422074545       15.0611437193  MEOH      3278            0.0000000000
     49822      3970  MEOH      HO1             7.7522989567      -24.5337631948       14.2588542656  MEOH      3278            0.0000000000
     49823      3970  MEOH      HO2             8.1224143162      -25.4358683188       15.6520637475  MEOH      3278            0.0000000000
     49824      3970  MEOH      H1A             6.3188850501      -24.5040964742       16.7112022149  MEOH      3278            0.0000000000
     49825      3970  MEOH      H1B             6.0284494519      -23.5376026049       15.2050366612  MEOH      3278            0.0000000000
     49826      3970  MEOH      H1C             7.5184388709      -23.2546715400       16.1700863984  MEOH      3278            0.0000000000
     49827      3970  MEOH      LP1A            7.8218659514      -25.0252413988       15.1386497762  MEOH      3278            0.0000000000
     49828      3970  MEOH      LP1B            7.2548361285      -25.1869620191       14.8473205455  MEOH      3278            0.0000000000
     49829      3971  MEOH      C1            -27.4934056234        0.7984676455       29.6426865551  MEOH      3279            0.0000000000
     49830      3971  MEOH      DC1           -27.5050703152        0.7848292967       29.6372033920  MEOH      3279            0.0000000000
     49831      3971  MEOH      O1            -28.8761646630        0.4995943734       29.8383498618  MEOH      3279            0.0000000000
     49832      3971  MEOH      DO1           -28.8744806755        0.4887316061       29.8329485664  MEOH      3279            0.0000000000
     49833      3971  MEOH      HO1           -29.4073001187        1.0003002525       29.1995316162  MEOH      3279            0.0000000000
     49834      3971  MEOH      HO2           -28.9509483384       -0.4614281354       29.9467156287  MEOH      3279            0.0000000000
     49835      3971  MEOH      H1A           -26.8974533396        0.4221882680       30.5015088333  MEOH      3279            0.0000000000
     49836      3971  MEOH      H1B           -27.3377963044        1.8969423800       29.5838648009  MEOH      3279            0.0000000000
     49837      3971  MEOH      H1C           -27.1306911015        0.3316892924       28.7020074679  MEOH      3279            0.0000000000
     49838      3971  MEOH      LP1A          -28.9672983718        0.2225438306       29.6448617645  MEOH      3279            0.0000000000
     49839      3971  MEOH      LP1B          -29.0140817283        0.7194150006       30.0732067863  MEOH      3279            0.0000000000
     49840      3972  MEOH      C1              9.0871005307       -7.8383921088      -20.1513950270  MEOH      3280            0.0000000000
     49841      3972  MEOH      DC1             9.0990397929       -7.8373874082      -20.1441960066  MEOH      3280            0.0000000000
     49842      3972  MEOH      O1              7.6641330300       -7.7435054647      -20.0932807297  MEOH      3280            0.0000000000
     49843      3972  MEOH      DO1             7.6747382032       -7.7374071386      -20.0752807210  MEOH      3280            0.0000000000
     49844      3972  MEOH      HO1             7.4121138896       -6.8274138938      -20.2886331973  MEOH      3280            0.0000000000
     49845      3972  MEOH      HO2             7.3495736062       -8.4370894267      -20.6940249830  MEOH      3280            0.0000000000
     49846      3972  MEOH      H1A             9.3655675287       -8.9117356402      -20.0827597915  MEOH      3280            0.0000000000
     49847      3972  MEOH      H1B             9.5478222770       -7.2720938301      -19.3139210083  MEOH      3280            0.0000000000
     49848      3972  MEOH      H1C             9.4651019482       -7.4530304268      -21.1224420417  MEOH      3280            0.0000000000
     49849      3972  MEOH      LP1A            7.5265174349       -7.8143270337      -20.4072015052  MEOH      3280            0.0000000000
     49850      3972  MEOH      LP1B            7.5624243051       -7.6679336881      -19.7670227920  MEOH      3280            0.0000000000
     49851      3973  MEOH      C1             -7.1978591103       -6.3117673822       -3.4689225158  MEOH      3281            0.0000000000
     49852      3973  MEOH      DC1            -7.1871480708       -6.3252670020       -3.4713825912  MEOH      3281            0.0000000000
     49853      3973  MEOH      O1             -6.8592355609       -5.3785422233       -4.4948081635  MEOH      3281            0.0000000000
     49854      3973  MEOH      DO1            -6.8449563393       -5.4020588733       -4.5024342641  MEOH      3281            0.0000000000
     49855      3973  MEOH      HO1            -7.5790893031       -4.7288150939       -4.5185830892  MEOH      3281            0.0000000000
     49856      3973  MEOH      HO2            -5.9665500207       -5.0689711275       -4.2753126886  MEOH      3281            0.0000000000
     49857      3973  MEOH      H1A            -6.4032244747       -7.0828195409       -3.3775148277  MEOH      3281            0.0000000000
     49858      3973  MEOH      H1B            -8.1652883681       -6.8020466351       -3.7098122941  MEOH      3281            0.0000000000
     49859      3973  MEOH      H1C            -7.3111807925       -5.8054200052       -2.4865317929  MEOH      3281            0.0000000000
     49860      3973  MEOH      LP1A           -6.6666423027       -5.1185634013       -4.3613209019  MEOH      3281            0.0000000000
     49861      3973  MEOH      LP1B           -6.9853744979       -5.4878389819       -4.8024494922  MEOH      3281            0.0000000000
     49862      3974  MEOH      C1             26.7879971765       31.0453803279        7.8044202312  MEOH      3282            0.0000000000
     49863      3974  MEOH      DC1            26.7831565221       31.0387970191        7.7880078282  MEOH      3282            0.0000000000
     49864      3974  MEOH      O1             25.6929894686       31.7371678921        7.2067298811  MEOH      3282            0.0000000000
     49865      3974  MEOH      DO1            25.6993112385       31.7476206157        7.1995833568  MEOH      3282            0.0000000000
     49866      3974  MEOH      HO1            25.8908467000       31.8710263294        6.2666051891  MEOH      3282            0.0000000000
     49867      3974  MEOH      HO2            24.9035444614       31.2375298506        7.4675716112  MEOH      3282            0.0000000000
     49868      3974  MEOH      H1A            26.5764196452       30.8616005344        8.8794927570  MEOH      3282            0.0000000000
     49869      3974  MEOH      H1B            27.7109761455       31.6597999096        7.7342817840  MEOH      3282            0.0000000000
     49870      3974  MEOH      H1C            26.9396499459       30.0657982764        7.3026818108  MEOH      3282            0.0000000000
     49871      3974  MEOH      LP1A           25.4555019395       31.5077803369        7.0906220733  MEOH      3282            0.0000000000
     49872      3974  MEOH      LP1B           25.7412876752       32.0828491133        7.2326485336  MEOH      3282            0.0000000000
     49873      3975  MEOH      C1              3.0459546039      -17.4452997284      -31.7439717706  MEOH      3283            0.0000000000
     49874      3975  MEOH      DC1             3.0488122607      -17.4577905231      -31.7332161837  MEOH      3283            0.0000000000
     49875      3975  MEOH      O1              4.2417780506      -16.7622603337      -31.3631510977  MEOH      3283            0.0000000000
     49876      3975  MEOH      DO1             4.2378031270      -16.7819367857      -31.3399666270  MEOH      3283            0.0000000000
     49877      3975  MEOH      HO1             4.8555711812      -16.7991397222      -32.1133496737  MEOH      3283            0.0000000000
     49878      3975  MEOH      HO2             3.9498890046      -15.8945481661      -31.0425635424  MEOH      3283            0.0000000000
     49879      3975  MEOH      H1A             2.3323196043      -17.4404552665      -30.8924891692  MEOH      3283            0.0000000000
     49880      3975  MEOH      H1B             3.2757878622      -18.4952337950      -32.0252832169  MEOH      3283            0.0000000000
     49881      3975  MEOH      H1C             2.5697717525      -16.9264400361      -32.6032479263  MEOH      3283            0.0000000000
     49882      3975  MEOH      LP1A            4.2155156332      -16.4221643096      -31.4415410194  MEOH      3283            0.0000000000
     49883      3975  MEOH      LP1B            4.4638635349      -16.9856890863      -31.2106465726  MEOH      3283            0.0000000000
     49884      3976  MEOH      C1             -7.1647656839      -26.3625209387        7.9992785525  MEOH      3284            0.0000000000
     49885      3976  MEOH      DC1            -7.1669078690      -26.3592081138        7.9866242655  MEOH      3284            0.0000000000
     49886      3976  MEOH      O1             -7.2100956844      -25.9266486471        6.6446921241  MEOH      3284            0.0000000000
     49887      3976  MEOH      DO1            -7.2116597623      -25.9150151097        6.6285535441  MEOH      3284            0.0000000000
     49888      3976  MEOH      HO1            -8.1486269627      -25.9556133437        6.4013403502  MEOH      3284            0.0000000000
     49889      3976  MEOH      HO2            -6.7334865912      -25.0819895035        6.6275251800  MEOH      3284            0.0000000000
     49890      3976  MEOH      H1A            -6.1098790588      -26.4058095110        8.3451995088  MEOH      3284            0.0000000000
     49891      3976  MEOH      H1B            -7.6249871038      -27.3689975561        8.0968596126  MEOH      3284            0.0000000000
     49892      3976  MEOH      H1C            -7.7278441969      -25.6488110855        8.6379348254  MEOH      3284            0.0000000000
     49893      3976  MEOH      LP1A           -7.2440402655      -25.5785288267        6.6320289473  MEOH      3284            0.0000000000
     49894      3976  MEOH      LP1B           -7.1723682018      -26.2001683397        6.4296023409  MEOH      3284            0.0000000000
     49895      3977  MEOH      C1             10.4700686872       23.4439133219       27.0315562064  MEOH      3285            0.0000000000
     49896      3977  MEOH      DC1            10.4698788801       23.4453717371       27.0366462944  MEOH      3285            0.0000000000
     49897      3977  MEOH      O1             11.6432503938       22.7180056658       27.3986524450  MEOH      3285            0.0000000000
     49898      3977  MEOH      DO1            11.6380045298       22.7157692420       27.3975370787  MEOH      3285            0.0000000000
     49899      3977  MEOH      HO1            12.0290749905       23.1178823941       28.1937235010  MEOH      3285            0.0000000000
     49900      3977  MEOH      HO2            11.4051492177       21.7779913464       27.3745503831  MEOH      3285            0.0000000000
     49901      3977  MEOH      H1A            10.1351393304       23.1255207162       26.0212248374  MEOH      3285            0.0000000000
     49902      3977  MEOH      H1B            10.6916413846       24.5324174723       27.0119283133  MEOH      3285            0.0000000000
     49903      3977  MEOH      H1C             9.6514576696       23.2338232993       27.7527074980  MEOH      3285            0.0000000000
     49904      3977  MEOH      LP1A           11.5588616132       22.4547464843       27.6132989849  MEOH      3285            0.0000000000
     49905      3977  MEOH      LP1B           11.9228277363       22.8524911210       27.2366333971  MEOH      3285            0.0000000000
     49906      3978  MEOH      C1              5.9292695536      -16.0239510866       15.3049826147  MEOH      3286            0.0000000000
     49907      3978  MEOH      DC1             5.9321094796      -16.0210078198       15.3035890836  MEOH      3286            0.0000000000
     49908      3978  MEOH      O1              6.5020014867      -15.6105025645       14.0635346207  MEOH      3286            0.0000000000
     49909      3978  MEOH      DO1             6.5130602053      -15.6056111052       14.0650231752  MEOH      3286            0.0000000000
     49910      3978  MEOH      HO1             7.0378116451      -16.3558250061       13.7500032315  MEOH      3286            0.0000000000
     49911      3978  MEOH      HO2             5.7530291572      -15.3179986364       13.5209648988  MEOH      3286            0.0000000000
     49912      3978  MEOH      H1A             5.2301524006      -15.2472198004       15.6821360522  MEOH      3286            0.0000000000
     49913      3978  MEOH      H1B             6.7244948215      -16.1972199264       16.0612336871  MEOH      3286            0.0000000000
     49914      3978  MEOH      H1C             5.3610974450      -16.9675039855       15.1593481994  MEOH      3286            0.0000000000
     49915      3978  MEOH      LP1A            6.2865566173      -15.6908346351       13.7996591450  MEOH      3286            0.0000000000
     49916      3978  MEOH      LP1B            6.8081831088      -15.4507117688       14.1202771612  MEOH      3286            0.0000000000
     49917      3979  MEOH      C1            -31.2146105586      -15.0987900248      -14.9394919138  MEOH      3287            0.0000000000
     49918      3979  MEOH      DC1           -31.2197698706      -15.0910916872      -14.9357784923  MEOH      3287            0.0000000000
     49919      3979  MEOH      O1            -30.5495912627      -13.9789418433      -14.3495782881  MEOH      3287            0.0000000000
     49920      3979  MEOH      DO1           -30.5544527916      -13.9723267242      -14.3447147000  MEOH      3287            0.0000000000
     49921      3979  MEOH      HO1           -31.2338869416      -13.3964998047      -13.9843376886  MEOH      3287            0.0000000000
     49922      3979  MEOH      HO2           -29.8598175987      -14.3493852180      -13.7769667276  MEOH      3287            0.0000000000
     49923      3979  MEOH      H1A           -30.4698854763      -15.7498362368      -15.4453025326  MEOH      3287            0.0000000000
     49924      3979  MEOH      H1B           -31.9536234880      -14.7526518176      -15.6933945811  MEOH      3287            0.0000000000
     49925      3979  MEOH      H1C           -31.7334936897      -15.6900338930      -14.1549461945  MEOH      3287            0.0000000000
     49926      3979  MEOH      LP1A          -30.4725921216      -14.0479704417      -14.0152039696  MEOH      3287            0.0000000000
     49927      3979  MEOH      LP1B          -30.5050883814      -13.7268165231      -14.5882251328  MEOH      3287            0.0000000000
     49928      3980  MEOH      C1             28.0383060753       24.9577580578       -2.4389991312  MEOH      3288            0.0000000000
     49929      3980  MEOH      DC1            28.0368077184       24.9644001779       -2.4326488083  MEOH      3288            0.0000000000
     49930      3980  MEOH      O1             29.0458357543       25.9269083515       -2.1404290943  MEOH      3288            0.0000000000
     49931      3980  MEOH      DO1            29.0471900160       25.9315203485       -2.1411704837  MEOH      3288            0.0000000000
     49932      3980  MEOH      HO1            29.5487815675       26.0752878201       -2.9564738494  MEOH      3288            0.0000000000
     49933      3980  MEOH      HO2            28.5936390112       26.6584318724       -1.6917739436  MEOH      3288            0.0000000000
     49934      3980  MEOH      H1A            27.5151851636       24.6424831715       -1.5109542735  MEOH      3288            0.0000000000
     49935      3980  MEOH      H1B            28.5017339441       24.0452324337       -2.8712636312  MEOH      3288            0.0000000000
     49936      3980  MEOH      H1C            27.2970799409       25.3837051503       -3.1485580736  MEOH      3288            0.0000000000
     49937      3980  MEOH      LP1A           28.9211510586       26.2495552611       -2.1938397523  MEOH      3288            0.0000000000
     49938      3980  MEOH      LP1B           29.3355179073       25.7671260603       -2.0261755618  MEOH      3288            0.0000000000
     49939      3981  MEOH      C1             27.8590726928      -29.4219988749       27.9049002063  MEOH      3289            0.0000000000
     49940      3981  MEOH      DC1            27.8513759274      -29.4190677266       27.9098587194  MEOH      3289            0.0000000000
     49941      3981  MEOH      O1             28.5560053250      -29.2469263402       26.6698705333  MEOH      3289            0.0000000000
     49942      3981  MEOH      DO1            28.5477072639      -29.2374824955       26.6737209103  MEOH      3289            0.0000000000
     49943      3981  MEOH      HO1            27.9333914864      -29.3886405922       25.9396862561  MEOH      3289            0.0000000000
     49944      3981  MEOH      HO2            29.0740124074      -28.4312219820       26.7546942563  MEOH      3289            0.0000000000
     49945      3981  MEOH      H1A            28.5947191066      -29.4925751423       28.7344569223  MEOH      3289            0.0000000000
     49946      3981  MEOH      H1B            27.2624158650      -30.3587160401       27.8751919212  MEOH      3289            0.0000000000
     49947      3981  MEOH      H1C            27.1928414639      -28.5532940842       28.0941327026  MEOH      3289            0.0000000000
     49948      3981  MEOH      LP1A           28.5433906449      -28.9111684881       26.5718525013  MEOH      3289            0.0000000000
     49949      3981  MEOH      LP1B           28.6950603885      -29.5511052854       26.5667256904  MEOH      3289            0.0000000000
     49950      3982  MEOH      C1             -4.3316673701      -24.3284123813      -33.2398671937  MEOH      3290            0.0000000000
     49951      3982  MEOH      DC1            -4.3199886713      -24.3309368317      -33.2267588085  MEOH      3290            0.0000000000
     49952      3982  MEOH      O1             -2.9596514254      -24.4690483414      -32.8529163905  MEOH      3290            0.0000000000
     49953      3982  MEOH      DO1            -2.9496538343      -24.4821817168      -32.8458551295  MEOH      3290            0.0000000000
     49954      3982  MEOH      HO1            -2.4734649652      -23.7886371135      -33.3444072722  MEOH      3290            0.0000000000
     49955      3982  MEOH      HO2            -2.9524352662      -24.4601645856      -31.8829839151  MEOH      3290            0.0000000000
     49956      3982  MEOH      H1A            -4.9444890290      -25.1169996869      -32.7531427579  MEOH      3290            0.0000000000
     49957      3982  MEOH      H1B            -4.4311096895      -24.4262655572      -34.3420727014  MEOH      3290            0.0000000000
     49958      3982  MEOH      H1C            -4.7199231688      -23.3317234212      -32.9395514386  MEOH      3290            0.0000000000
     49959      3982  MEOH      LP1A           -2.8942039994      -24.2728903869      -32.5705359887  MEOH      3290            0.0000000000
     49960      3982  MEOH      LP1B           -2.7986335906      -24.6974069546      -33.0636902044  MEOH      3290            0.0000000000
     49961      3983  MEOH      C1            -29.5319297128      -16.2016737533       -0.6783905461  MEOH      3291            0.0000000000
     49962      3983  MEOH      DC1           -29.5320605328      -16.2108469975       -0.6740252930  MEOH      3291            0.0000000000
     49963      3983  MEOH      O1            -28.2966652662      -16.6276897546       -0.1084042617  MEOH      3291            0.0000000000
     49964      3983  MEOH      DO1           -28.2928631368      -16.6335933917       -0.1141491395  MEOH      3291            0.0000000000
     49965      3983  MEOH      HO1           -27.6479188806      -16.6665702562       -0.8284851147  MEOH      3291            0.0000000000
     49966      3983  MEOH      HO2           -28.1416359159      -16.0450575458        0.6514678393  MEOH      3291            0.0000000000
     49967      3983  MEOH      H1A           -30.3288839910      -16.2304836186        0.0951434674  MEOH      3291            0.0000000000
     49968      3983  MEOH      H1B           -29.8070625380      -16.8740888158       -1.5189147358  MEOH      3291            0.0000000000
     49969      3983  MEOH      H1C           -29.4374922885      -15.1632638638       -1.0619364689  MEOH      3291            0.0000000000
     49970      3983  MEOH      LP1A          -28.1135652806      -16.3503703840        0.0014518349  MEOH      3291            0.0000000000
     49971      3983  MEOH      LP1B          -28.2772787594      -16.9771317996       -0.1122016932  MEOH      3291            0.0000000000
     49972      3984  MEOH      C1              8.3725933028       18.1507049491      -21.2938330364  MEOH      3292            0.0000000000
     49973      3984  MEOH      DC1             8.3755707765       18.1376286097      -21.3042968605  MEOH      3292            0.0000000000
     49974      3984  MEOH      O1              8.5058929243       16.7322231247      -21.2801831736  MEOH      3292            0.0000000000
     49975      3984  MEOH      DO1             8.4888220343       16.7281137531      -21.2885629992  MEOH      3292            0.0000000000
     49976      3984  MEOH      HO1             8.7877378114       16.4654486548      -20.3911978859  MEOH      3292            0.0000000000
     49977      3984  MEOH      HO2             7.7103802518       16.3690247759      -21.6998813370  MEOH      3292            0.0000000000
     49978      3984  MEOH      H1A             8.2111856906       18.4960445332      -22.3373890512  MEOH      3292            0.0000000000
     49979      3984  MEOH      H1B             9.2950752500       18.6312736807      -20.9034463670  MEOH      3292            0.0000000000
     49980      3984  MEOH      H1C             7.5097554462       18.4738358146      -20.6730123884  MEOH      3292            0.0000000000
     49981      3984  MEOH      LP1A            8.2008607723       16.5841532991      -21.1934034925  MEOH      3292            0.0000000000
     49982      3984  MEOH      LP1B            8.8301656488       16.6415370417      -21.3756987978  MEOH      3292            0.0000000000
     49983      3985  MEOH      C1             27.7449990037        2.3388668674        9.9041742271  MEOH      3293            0.0000000000
     49984      3985  MEOH      DC1            27.7394557014        2.3374447307        9.9062433660  MEOH      3293            0.0000000000
     49985      3985  MEOH      O1             27.1323135329        3.3825057329       10.6635611106  MEOH      3293            0.0000000000
     49986      3985  MEOH      DO1            27.1273217185        3.3870371834       10.6566220968  MEOH      3293            0.0000000000
     49987      3985  MEOH      HO1            26.1783403671        3.2074029329       10.6767599435  MEOH      3293            0.0000000000
     49988      3985  MEOH      HO2            27.6267700839        3.4207104928       11.4971995908  MEOH      3293            0.0000000000
     49989      3985  MEOH      H1A            28.8381140580        2.5209324686        9.8249745076  MEOH      3293            0.0000000000
     49990      3985  MEOH      H1B            27.3160095571        2.3223795427        8.8794707467  MEOH      3293            0.0000000000
     49991      3985  MEOH      H1C            27.5777123789        1.3537884007       10.3899278696  MEOH      3293            0.0000000000
     49992      3985  MEOH      LP1A           27.1225923300        3.2943207634       11.0021300244  MEOH      3293            0.0000000000
     49993      3985  MEOH      LP1B           27.0496576921        3.6503558726       10.4539798266  MEOH      3293            0.0000000000
     49994      3986  MEOH      C1             21.3028757286       -5.5201117087       -3.8037633563  MEOH      3294            0.0000000000
     49995      3986  MEOH      DC1            21.2900498032       -5.5244362168       -3.8042662634  MEOH      3294            0.0000000000
     49996      3986  MEOH      O1             20.2677066976       -5.6055340203       -4.7920813837  MEOH      3294            0.0000000000
     49997      3986  MEOH      DO1            20.2582763590       -5.6121702492       -4.7948691569  MEOH      3294            0.0000000000
     49998      3986  MEOH      HO1            19.9491552553       -4.7028023779       -4.9486079320  MEOH      3294            0.0000000000
     49999      3986  MEOH      HO2            20.6294562098       -6.1356749006       -5.5193969535  MEOH      3294            0.0000000000
     50000      3986  MEOH      H1A            21.6585766996       -6.5400078455       -3.5437447235  MEOH      3294            0.0000000000
     50001      3986  MEOH      H1B            20.9228819516       -5.0297189002       -2.8821123242  MEOH      3294            0.0000000000
     50002      3986  MEOH      H1C            22.1620346442       -4.9380704048       -4.2004935928  MEOH      3294            0.0000000000
     50003      3986  MEOH      LP1A           20.4059213536       -5.5805711847       -5.1126645488  MEOH      3294            0.0000000000
     50004      3986  MEOH      LP1B           19.9580389963       -5.6561444009       -4.6370184799  MEOH      3294            0.0000000000
     50005      3987  MEOH      C1              4.9558063341       -9.5662952250      -31.3718239729  MEOH      3295            0.0000000000
     50006      3987  MEOH      DC1             4.9456123708       -9.5596326521      -31.3545604795  MEOH      3295            0.0000000000
     50007      3987  MEOH      O1              5.2085960508       -9.8735113772      -29.9992207734  MEOH      3295            0.0000000000
     50008      3987  MEOH      DO1             5.1998969413       -9.8543842485      -29.9809462428  MEOH      3295            0.0000000000
     50009      3987  MEOH      HO1             4.3492124238      -10.1028742207      -29.6122421328  MEOH      3295            0.0000000000
     50010      3987  MEOH      HO2             5.8772088701      -10.5755708277      -30.0303563784  MEOH      3295            0.0000000000
     50011      3987  MEOH      H1A             5.9217109362       -9.4923339501      -31.9157716077  MEOH      3295            0.0000000000
     50012      3987  MEOH      H1B             4.4141651242       -8.6005463677      -31.4627907016  MEOH      3295            0.0000000000
     50013      3987  MEOH      H1C             4.3568636755      -10.3743328674      -31.8436966894  MEOH      3295            0.0000000000
     50014      3987  MEOH      LP1A            5.2837344930      -10.2135870945      -29.9645405055  MEOH      3295            0.0000000000
     50015      3987  MEOH      LP1B            5.1869789340       -9.5827899198      -29.8055361470  MEOH      3295            0.0000000000
     50016      3988  MEOH      C1            -19.0231078054      -12.6005404600       14.7615639022  MEOH      3296            0.0000000000
     50017      3988  MEOH      DC1           -19.0081595989      -12.6125105193       14.7473454743  MEOH      3296            0.0000000000
     50018      3988  MEOH      O1            -18.5690179227      -13.9567193306       14.7143221938  MEOH      3296            0.0000000000
     50019      3988  MEOH      DO1           -18.5515181511      -13.9518071723       14.7022047542  MEOH      3296            0.0000000000
     50020      3988  MEOH      HO1           -18.4123972275      -14.2343763858       15.6304425565  MEOH      3296            0.0000000000
     50021      3988  MEOH      HO2           -19.2440316174      -14.4342221363       14.2071263909  MEOH      3296            0.0000000000
     50022      3988  MEOH      H1A           -19.2501053560      -12.2416614833       13.7349193712  MEOH      3296            0.0000000000
     50023      3988  MEOH      H1B           -18.2462385529      -11.9474696069       15.2135524258  MEOH      3296            0.0000000000
     50024      3988  MEOH      H1C           -19.9516515000      -12.5186311036       15.3660624271  MEOH      3296            0.0000000000
     50025      3988  MEOH      LP1A          -18.8423874089      -14.1749673206       14.7260242808  MEOH      3296            0.0000000000
     50026      3988  MEOH      LP1B          -18.2205028573      -13.9652520470       14.6832667272  MEOH      3296            0.0000000000
     50027      3989  MEOH      C1             33.0993403582      -18.7364336824        7.3969250444  MEOH      3297            0.0000000000
     50028      3989  MEOH      DC1            33.1035235212      -18.7309034920        7.3947875624  MEOH      3297            0.0000000000
     50029      3989  MEOH      O1             32.7760773272      -17.5367069687        8.1024015259  MEOH      3297            0.0000000000
     50030      3989  MEOH      DO1            32.7837942215      -17.5286388345        8.1027484673  MEOH      3297            0.0000000000
     50031      3989  MEOH      HO1            31.8203537212      -17.5747142015        8.2637949575  MEOH      3297            0.0000000000
     50032      3989  MEOH      HO2            33.3963463368      -17.4946979829        8.8469830197  MEOH      3297            0.0000000000
     50033      3989  MEOH      H1A            34.1819211813      -18.7391340879        7.1472603305  MEOH      3297            0.0000000000
     50034      3989  MEOH      H1B            32.5170714727      -18.7910579196        6.4523086466  MEOH      3297            0.0000000000
     50035      3989  MEOH      H1C            32.8732858845      -19.6259670710        8.0229847267  MEOH      3297            0.0000000000
     50036      3989  MEOH      LP1A           32.8088596481      -17.5879832230        8.4470695766  MEOH      3297            0.0000000000
     50037      3989  MEOH      LP1B           32.7001490879      -17.2812104681        7.8755614045  MEOH      3297            0.0000000000
     50038      3990  MEOH      C1            -12.6290852388      -19.8406315679       27.2984561841  MEOH      3298            0.0000000000
     50039      3990  MEOH      DC1           -12.6181929281      -19.8352836383       27.2970417998  MEOH      3298            0.0000000000
     50040      3990  MEOH      O1            -13.9499689886      -19.3041009363       27.2953022313  MEOH      3298            0.0000000000
     50041      3990  MEOH      DO1           -13.9405911200      -19.3036521032       27.2817580111  MEOH      3298            0.0000000000
     50042      3990  MEOH      HO1           -13.8971858456      -18.3409730276       27.1928396875  MEOH      3298            0.0000000000
     50043      3990  MEOH      HO2           -14.4661062180      -19.8545369386       26.6857757201  MEOH      3298            0.0000000000
     50044      3990  MEOH      H1A           -12.6629965158      -20.9175455469       27.5694309191  MEOH      3298            0.0000000000
     50045      3990  MEOH      H1B           -11.9989447160      -19.3112316749       28.0447668948  MEOH      3298            0.0000000000
     50046      3990  MEOH      H1C           -12.1789553324      -19.7378932550       26.2879370566  MEOH      3298            0.0000000000
     50047      3990  MEOH      LP1A          -14.0760753071      -19.2983892656       26.9688599343  MEOH      3298            0.0000000000
     50048      3990  MEOH      LP1B          -14.0499720897      -19.2302835045       27.6224877544  MEOH      3298            0.0000000000
     50049      3991  MEOH      C1             33.0157471538      -34.9000179621       12.8253202500  MEOH      3299            0.0000000000
     50050      3991  MEOH      DC1            33.0253517782      -34.9126492266       12.8346058945  MEOH      3299            0.0000000000
     50051      3991  MEOH      O1             32.9120243442      -33.4835396172       12.9665152546  MEOH      3299            0.0000000000
     50052      3991  MEOH      DO1            32.9157455168      -33.4949917470       12.9794581388  MEOH      3299            0.0000000000
     50053      3991  MEOH      HO1            32.0766069003      -33.1972029550       12.5652808943  MEOH      3299            0.0000000000
     50054      3991  MEOH      HO2            33.1292378560      -33.2824044940       13.8902375898  MEOH      3299            0.0000000000
     50055      3991  MEOH      H1A            34.0368203204      -35.2261647085       13.1174826857  MEOH      3299            0.0000000000
     50056      3991  MEOH      H1B            32.8314197995      -35.1950404074       11.7701869963  MEOH      3299            0.0000000000
     50057      3991  MEOH      H1C            32.2656461429      -35.3926034674       13.4803232996  MEOH      3299            0.0000000000
     50058      3991  MEOH      LP1A           32.7560606109      -33.4045653760       13.2697286830  MEOH      3299            0.0000000000
     50059      3991  MEOH      LP1B           33.0607289628      -33.3247040203       12.6923653147  MEOH      3299            0.0000000000
     50060      3992  MEOH      C1             -3.0661222859      -17.8052121167       34.6185062138  MEOH      3300            0.0000000000
     50061      3992  MEOH      DC1            -3.0754085278      -17.8344014872       34.6331548560  MEOH      3300            0.0000000000
     50062      3992  MEOH      O1             -3.6681753186      -18.6738016668       35.5856016363  MEOH      3300            0.0000000000
     50063      3992  MEOH      DO1            -3.6591818683      -18.7107462994       35.5863193200  MEOH      3300            0.0000000000
     50064      3992  MEOH      HO1            -3.7290270106      -18.1407661869       36.3937292554  MEOH      3300            0.0000000000
     50065      3992  MEOH      HO2            -4.4998700265      -18.9674225509       35.1819053523  MEOH      3300            0.0000000000
     50066      3992  MEOH      H1A            -3.0134646630      -18.3053638235       33.6278516592  MEOH      3300            0.0000000000
     50067      3992  MEOH      H1B            -2.0374174355      -17.5232586452       34.9292948415  MEOH      3300            0.0000000000
     50068      3992  MEOH      H1C            -3.6654412420      -16.8756557282       34.5133267981  MEOH      3300            0.0000000000
     50069      3992  MEOH      LP1A           -4.0167538019      -18.6458760316       35.5710002714  MEOH      3300            0.0000000000
     50070      3992  MEOH      LP1B           -3.4207455175      -18.8552557263       35.7539848831  MEOH      3300            0.0000000000
     50071      3993  MEOH      C1              2.5737602864       31.7963558449        2.3764343452  MEOH      3301            0.0000000000
     50072      3993  MEOH      DC1             2.5687417045       31.7943108691        2.3668226296  MEOH      3301            0.0000000000
     50073      3993  MEOH      O1              3.9938694591       31.9521752087        2.4198264078  MEOH      3301            0.0000000000
     50074      3993  MEOH      DO1             3.9883254797       31.9447321818        2.4182933493  MEOH      3301            0.0000000000
     50075      3993  MEOH      HO1             4.1870417699       32.9023302683        2.4479301887  MEOH      3301            0.0000000000
     50076      3993  MEOH      HO2             4.2995206036       31.3784372258        3.1397584218  MEOH      3301            0.0000000000
     50077      3993  MEOH      H1A             2.3228886156       30.7192911201        2.2700577341  MEOH      3301            0.0000000000
     50078      3993  MEOH      H1B             2.1548163672       32.3589032520        1.5148384946  MEOH      3301            0.0000000000
     50079      3993  MEOH      H1C             2.1218042478       32.1746225813        3.3182257318  MEOH      3301            0.0000000000
     50080      3993  MEOH      LP1A            4.1042576129       31.9516676667        2.7519622202  MEOH      3301            0.0000000000
     50081      3993  MEOH      LP1B            4.1226164131       31.9673751414        2.0947215264  MEOH      3301            0.0000000000
     50082      3994  MEOH      C1              2.9558237885       -1.4237312653       -1.3282092392  MEOH      3302            0.0000000000
     50083      3994  MEOH      DC1             2.9782283568       -1.4259425950       -1.3055253773  MEOH      3302            0.0000000000
     50084      3994  MEOH      O1              3.0560907102       -2.7271596832       -1.9044077443  MEOH      3302            0.0000000000
     50085      3994  MEOH      DO1             3.0793006051       -2.7372342389       -1.8906151526  MEOH      3302            0.0000000000
     50086      3994  MEOH      HO1             3.9471091090       -3.0670811858       -1.7270956283  MEOH      3302            0.0000000000
     50087      3994  MEOH      HO2             2.2644400549       -3.2052137775       -1.6117415130  MEOH      3302            0.0000000000
     50088      3994  MEOH      H1A             1.9849612296       -0.9528966731       -1.5929009060  MEOH      3302            0.0000000000
     50089      3994  MEOH      H1B             3.7858023840       -0.7714101054       -1.6745236017  MEOH      3302            0.0000000000
     50090      3994  MEOH      H1C             2.9990673132       -1.5285577319       -0.2230113337  MEOH      3302            0.0000000000
     50091      3994  MEOH      LP1A            2.9524889511       -2.9685719282       -1.6731356027  MEOH      3302            0.0000000000
     50092      3994  MEOH      LP1B            3.1656652786       -2.7033686070       -2.2359607546  MEOH      3302            0.0000000000
     50093      3995  MEOH      C1            -20.7905135576        5.5900386899       -7.7249276171  MEOH      3303            0.0000000000
     50094      3995  MEOH      DC1           -20.7943678858        5.5843717572       -7.7211266699  MEOH      3303            0.0000000000
     50095      3995  MEOH      O1            -21.1148850415        4.1994895782       -7.6421642784  MEOH      3303            0.0000000000
     50096      3995  MEOH      DO1           -21.1391527808        4.1970461038       -7.6205120285  MEOH      3303            0.0000000000
     50097      3995  MEOH      HO1           -21.1160719392        3.9371658969       -6.7083094299  MEOH      3303            0.0000000000
     50098      3995  MEOH      HO2           -21.8451852307        4.0334935112       -8.2586113072  MEOH      3303            0.0000000000
     50099      3995  MEOH      H1A           -20.5714995862        5.8682526239       -8.7779949879  MEOH      3303            0.0000000000
     50100      3995  MEOH      H1B           -19.8910249258        5.8188115894       -7.1142688227  MEOH      3303            0.0000000000
     50101      3995  MEOH      H1C           -21.6473890687        6.2014939298       -7.3696701772  MEOH      3303            0.0000000000
     50102      3995  MEOH      LP1A          -21.4617863694        4.1585975443       -7.6200891722  MEOH      3303            0.0000000000
     50103      3995  MEOH      LP1B          -20.8231414640        4.0071377813       -7.6618231488  MEOH      3303            0.0000000000
     50104      3996  MEOH      C1             -5.1572555811       -7.9981492018       33.1776594206  MEOH      3304            0.0000000000
     50105      3996  MEOH      DC1            -5.1597479313       -8.0105295842       33.1796526275  MEOH      3304            0.0000000000
     50106      3996  MEOH      O1             -6.1821345968       -7.6523524649       32.2427062781  MEOH      3304            0.0000000000
     50107      3996  MEOH      DO1            -6.1926368123       -7.6616716085       32.2427016387  MEOH      3304            0.0000000000
     50108      3996  MEOH      HO1            -6.7041885507       -8.4506701647       32.0665003737  MEOH      3304            0.0000000000
     50109      3996  MEOH      HO2            -6.5898304459       -6.8398954593       32.5812291115  MEOH      3304            0.0000000000
     50110      3996  MEOH      H1A            -4.4520516755       -7.1465878401       33.2865249315  MEOH      3304            0.0000000000
     50111      3996  MEOH      H1B            -4.5956553942       -8.8865425462       32.8175434730  MEOH      3304            0.0000000000
     50112      3996  MEOH      H1C            -5.6050215712       -8.2099073654       34.1721367204  MEOH      3304            0.0000000000
     50113      3996  MEOH      LP1A           -6.4670665499       -7.5414153777       32.4130199441  MEOH      3304            0.0000000000
     50114      3996  MEOH      LP1B           -6.0649762580       -7.6945704023       31.9156106203  MEOH      3304            0.0000000000
     50115      3997  MEOH      C1            -14.0555608649      -31.3710427452      -29.9486439763  MEOH      3305            0.0000000000
     50116      3997  MEOH      DC1           -14.0539855751      -31.3714801027      -29.9535492736  MEOH      3305            0.0000000000
     50117      3997  MEOH      O1            -15.1664576772      -31.0613858607      -29.1057107570  MEOH      3305            0.0000000000
     50118      3997  MEOH      DO1           -15.1596553649      -31.0644755646      -29.0991476654  MEOH      3305            0.0000000000
     50119      3997  MEOH      HO1           -15.9458064179      -30.9682135239      -29.6756532603  MEOH      3305            0.0000000000
     50120      3997  MEOH      HO2           -15.1640131637      -31.7354112183      -28.4081551379  MEOH      3305            0.0000000000
     50121      3997  MEOH      H1A           -13.1268835155      -31.4513179721      -29.3441315521  MEOH      3305            0.0000000000
     50122      3997  MEOH      H1B           -13.9148112608      -30.5715176603      -30.7071096567  MEOH      3305            0.0000000000
     50123      3997  MEOH      H1C           -14.2215138727      -32.3531800438      -30.4407688853  MEOH      3305            0.0000000000
     50124      3997  MEOH      LP1A          -15.3195418304      -31.3564664747      -28.9961996923  MEOH      3305            0.0000000000
     50125      3997  MEOH      LP1B          -15.1926934378      -30.7147820350      -29.0647537939  MEOH      3305            0.0000000000
     50126      3998  MEOH      C1             24.4095567380       17.9921954146        2.2745745620  MEOH      3306            0.0000000000
     50127      3998  MEOH      DC1            24.4148214843       17.9897240025        2.2791358750  MEOH      3306            0.0000000000
     50128      3998  MEOH      O1             25.7931666810       17.7589337367        2.5370395044  MEOH      3306            0.0000000000
     50129      3998  MEOH      DO1            25.7864801053       17.7539700048        2.5395908290  MEOH      3306            0.0000000000
     50130      3998  MEOH      HO1            26.2987127326       17.9335685353        1.7278263815  MEOH      3306            0.0000000000
     50131      3998  MEOH      HO2            26.0002536286       18.2259189058        3.3616241562  MEOH      3306            0.0000000000
     50132      3998  MEOH      H1A            23.8198162095       17.6571551457        3.1545036087  MEOH      3306            0.0000000000
     50133      3998  MEOH      H1B            24.0709345459       17.4087759088        1.3918074957  MEOH      3306            0.0000000000
     50134      3998  MEOH      H1C            24.2264821268       19.0715828054        2.0855572402  MEOH      3306            0.0000000000
     50135      3998  MEOH      LP1A           25.9437869983       18.0521500160        2.6546734007  MEOH      3306            0.0000000000
     50136      3998  MEOH      LP1B           25.8720727111       17.4237728722        2.4742618546  MEOH      3306            0.0000000000
     50137      3999  MEOH      C1            -33.8013190828       21.8364406107       15.8317756310  MEOH      3307            0.0000000000
     50138      3999  MEOH      DC1           -33.8114170202       21.8397040099       15.8415844065  MEOH      3307            0.0000000000
     50139      3999  MEOH      O1            -34.7688960899       21.3378469393       16.7602722877  MEOH      3307            0.0000000000
     50140      3999  MEOH      DO1           -34.7804494810       21.3412989412       16.7677731461  MEOH      3307            0.0000000000
     50141      3999  MEOH      HO1           -34.4122687727       20.5003698029       17.0954573172  MEOH      3307            0.0000000000
     50142      3999  MEOH      HO2           -34.9582139895       22.0708312659       17.3667314453  MEOH      3307            0.0000000000
     50143      3999  MEOH      H1A           -34.1849428624       22.7570062059       15.3421709123  MEOH      3307            0.0000000000
     50144      3999  MEOH      H1B           -33.5990853294       21.0776729038       15.0458404694  MEOH      3307            0.0000000000
     50145      3999  MEOH      H1C           -32.8513552255       22.0721404532       16.3574516288  MEOH      3307            0.0000000000
     50146      3999  MEOH      LP1A          -34.7026430262       21.4623224210       17.0806102124  MEOH      3307            0.0000000000
     50147      3999  MEOH      LP1B          -35.0036894632       21.1390991635       16.5933250101  MEOH      3307            0.0000000000
     50148      4000  MEOH      C1              3.6064843477        1.1439439772      -29.3510939434  MEOH      3308            0.0000000000
     50149      4000  MEOH      DC1             3.6124401800        1.1510385671      -29.3280916758  MEOH      3308            0.0000000000
     50150      4000  MEOH      O1              3.6253002658        0.4615890904      -28.0945951917  MEOH      3308            0.0000000000
     50151      4000  MEOH      DO1             3.6394219470        0.4800401571      -28.0762701986  MEOH      3308            0.0000000000
     50152      4000  MEOH      HO1             2.8088388454       -0.0608988430      -28.0585797848  MEOH      3308            0.0000000000
     50153      4000  MEOH      HO2             4.4833908979        0.0117113018      -28.0477930276  MEOH      3308            0.0000000000
     50154      4000  MEOH      H1A             4.4745822811        1.8340765359      -29.4177575017  MEOH      3308            0.0000000000
     50155      4000  MEOH      H1B             2.6678917584        1.7290917591      -29.4558175064  MEOH      3308            0.0000000000
     50156      4000  MEOH      H1C             3.6651254272        0.4124176793      -30.1852111420  MEOH      3308            0.0000000000
     50157      4000  MEOH      LP1A            3.7879217795        0.1534814218      -28.1281199261  MEOH      3308            0.0000000000
     50158      4000  MEOH      LP1B            3.4759340011        0.6603005786      -27.8482144631  MEOH      3308            0.0000000000
     50159      4001  MEOH      C1             -4.9481952483       29.3688513512      -31.0745644119  MEOH      3309            0.0000000000
     50160      4001  MEOH      DC1            -4.9560537646       29.3719724742      -31.0765858432  MEOH      3309            0.0000000000
     50161      4001  MEOH      O1             -5.7043280644       28.3080909112      -30.4863582933  MEOH      3309            0.0000000000
     50162      4001  MEOH      DO1            -5.7086205208       28.3065588969      -30.4865766423  MEOH      3309            0.0000000000
     50163      4001  MEOH      HO1            -6.4322897016       28.1035095051      -31.0939093642  MEOH      3309            0.0000000000
     50164      4001  MEOH      HO2            -5.0579771674       27.6259192028      -30.2459996482  MEOH      3309            0.0000000000
     50165      4001  MEOH      H1A            -4.1648703946       29.6970771521      -30.3583305134  MEOH      3309            0.0000000000
     50166      4001  MEOH      H1B            -5.6073531283       30.2331671610      -31.3043253149  MEOH      3309            0.0000000000
     50167      4001  MEOH      H1C            -4.4458674169       29.0191195129      -32.0017512277  MEOH      3309            0.0000000000
     50168      4001  MEOH      LP1A           -5.5741889930       27.9988165427      -30.5859232824  MEOH      3309            0.0000000000
     50169      4001  MEOH      LP1B           -5.9539830727       28.4395814101      -30.2792770881  MEOH      3309            0.0000000000
     50170      4002  MEOH      C1            -27.8537144437        4.1887471612       -3.0158911216  MEOH      3310            0.0000000000
     50171      4002  MEOH      DC1           -27.8545734758        4.1966582925       -2.9968036594  MEOH      3310            0.0000000000
     50172      4002  MEOH      O1            -27.6407314597        3.3802622581       -4.1660434076  MEOH      3310            0.0000000000
     50173      4002  MEOH      DO1           -27.6443963598        3.3894232446       -4.1580542341  MEOH      3310            0.0000000000
     50174      4002  MEOH      HO1           -27.1909530908        2.5674717555       -3.8868104982  MEOH      3310            0.0000000000
     50175      4002  MEOH      HO2           -28.4941660472        3.3447428779       -4.6257039118  MEOH      3310            0.0000000000
     50176      4002  MEOH      H1A           -28.2585865128        5.1787174134       -3.3164880439  MEOH      3310            0.0000000000
     50177      4002  MEOH      H1B           -26.8914282242        4.3315119433       -2.4792865659  MEOH      3310            0.0000000000
     50178      4002  MEOH      H1C           -28.6008916007        3.7013323941       -2.3537173220  MEOH      3310            0.0000000000
     50179      4002  MEOH      LP1A          -27.9166693510        3.1713931591       -4.2183117500  MEOH      3310            0.0000000000
     50180      4002  MEOH      LP1B          -27.3339708895        3.4609807484       -4.3139706799  MEOH      3310            0.0000000000
     50181      4003  MEOH      C1            -28.2852276709      -13.4695656255       20.3493415785  MEOH      3311            0.0000000000
     50182      4003  MEOH      DC1           -28.2869571041      -13.4566216504       20.3450198786  MEOH      3311            0.0000000000
     50183      4003  MEOH      O1            -27.9725088689      -12.1456108632       19.9201431635  MEOH      3311            0.0000000000
     50184      4003  MEOH      DO1           -27.9797791626      -12.1371105983       19.9073111516  MEOH      3311            0.0000000000
     50185      4003  MEOH      HO1           -28.1138958253      -11.5697417162       20.6877918173  MEOH      3311            0.0000000000
     50186      4003  MEOH      HO2           -27.0820321429      -12.2042739507       19.5399986612  MEOH      3311            0.0000000000
     50187      4003  MEOH      H1A           -28.0917746375      -14.1786435070       19.5162116472  MEOH      3311            0.0000000000
     50188      4003  MEOH      H1B           -29.3545118791      -13.5357100714       20.6435816072  MEOH      3311            0.0000000000
     50189      4003  MEOH      H1C           -27.6398722490      -13.7571376865       21.2067444539  MEOH      3311            0.0000000000
     50190      4003  MEOH      LP1A          -27.6321480485      -12.0809176544       19.9698352221  MEOH      3311            0.0000000000
     50191      4003  MEOH      LP1B          -28.2579043041      -11.9920806058       19.7879391331  MEOH      3311            0.0000000000
     50192      4004  MEOH      C1             33.7713232342      -30.2934156529      -25.4408762039  MEOH      3312            0.0000000000
     50193      4004  MEOH      DC1            33.7536988638      -30.2973248168      -25.4475636786  MEOH      3312            0.0000000000
     50194      4004  MEOH      O1             32.8803339623      -31.1019297466      -26.2079226927  MEOH      3312            0.0000000000
     50195      4004  MEOH      DO1            32.8614725993      -31.1161253748      -26.2029170601  MEOH      3312            0.0000000000
     50196      4004  MEOH      HO1            33.4214050174      -31.4897808061      -26.9134109422  MEOH      3312            0.0000000000
     50197      4004  MEOH      HO2            32.3615958546      -31.6234715566      -25.5756214069  MEOH      3312            0.0000000000
     50198      4004  MEOH      H1A            33.1885131289      -29.5675173884      -24.8344727968  MEOH      3312            0.0000000000
     50199      4004  MEOH      H1B            34.4574904722      -29.7300268162      -26.1087748044  MEOH      3312            0.0000000000
     50200      4004  MEOH      H1C            34.3843933566      -30.9353937484      -24.7727967551  MEOH      3312            0.0000000000
     50201      4004  MEOH      LP1A           32.8685821212      -31.4257493208      -26.0756246293  MEOH      3312            0.0000000000
     50202      4004  MEOH      LP1B           32.7339323523      -30.9108242009      -26.4619802433  MEOH      3312            0.0000000000
     50203      4005  MEOH      C1            -24.9205530914       -1.7280688376      -29.1491770971  MEOH      3313            0.0000000000
     50204      4005  MEOH      DC1           -24.9246742757       -1.7221073371      -29.1561939942  MEOH      3313            0.0000000000
     50205      4005  MEOH      O1            -24.2398626598       -2.8477008912      -28.5824828351  MEOH      3313            0.0000000000
     50206      4005  MEOH      DO1           -24.2447556209       -2.8441656046      -28.5818603834  MEOH      3313            0.0000000000
     50207      4005  MEOH      HO1           -24.5780756310       -3.6398816969      -29.0285339051  MEOH      3313            0.0000000000
     50208      4005  MEOH      HO2           -23.2960346305       -2.6353291884      -28.6531009043  MEOH      3313            0.0000000000
     50209      4005  MEOH      H1A           -24.5121052844       -0.7831858954      -28.7312206199  MEOH      3313            0.0000000000
     50210      4005  MEOH      H1B           -26.0086051903       -1.7884599560      -28.9328057878  MEOH      3313            0.0000000000
     50211      4005  MEOH      H1C           -24.7720068954       -1.7370387669      -30.2501650934  MEOH      3313            0.0000000000
     50212      4005  MEOH      LP1A          -23.9444171098       -2.9102600128      -28.7593960434  MEOH      3313            0.0000000000
     50213      4005  MEOH      LP1B          -24.4153000994       -2.9658517796      -28.3036243184  MEOH      3313            0.0000000000
     50214      4006  MEOH      C1            -35.6191848649      -35.1739051082      -30.1429038064  MEOH      3314            0.0000000000
     50215      4006  MEOH      DC1           -35.6166331205      -35.1835646143      -30.1494334459  MEOH      3314            0.0000000000
     50216      4006  MEOH      O1            -34.9434720442      -36.3770561511      -29.8241294285  MEOH      3314            0.0000000000
     50217      4006  MEOH      DO1           -34.9420765247      -36.3842148235      -29.8251549036  MEOH      3314            0.0000000000
     50218      4006  MEOH      HO1           -35.4633848514      -37.1086437255      -30.1920564520  MEOH      3314            0.0000000000
     50219      4006  MEOH      HO2           -34.0172648246      -36.2487467041      -30.0821543736  MEOH      3314            0.0000000000
     50220      4006  MEOH      H1A           -35.0913773564      -34.3156919802      -29.6747046385  MEOH      3314            0.0000000000
     50221      4006  MEOH      H1B           -36.6655189379      -35.2044298204      -29.7706481807  MEOH      3314            0.0000000000
     50222      4006  MEOH      H1C           -35.6154663085      -35.0662028455      -31.2486648093  MEOH      3314            0.0000000000
     50223      4006  MEOH      LP1A          -34.7126946717      -36.4549505762      -30.0754743367  MEOH      3314            0.0000000000
     50224      4006  MEOH      LP1B          -35.0518523653      -36.4965387613      -29.5135209743  MEOH      3314            0.0000000000
     50225      4007  MEOH      C1             15.8869957445        8.5639448216      -30.0855486904  MEOH      3315            0.0000000000
     50226      4007  MEOH      DC1            15.8918694647        8.5607658365      -30.0814050943  MEOH      3315            0.0000000000
     50227      4007  MEOH      O1             15.2925665559        7.5713219535      -30.9246132992  MEOH      3315            0.0000000000
     50228      4007  MEOH      DO1            15.2910727989        7.5677364239      -30.9208678169  MEOH      3315            0.0000000000
     50229      4007  MEOH      HO1            15.8709626360        7.4400147877      -31.6921524864  MEOH      3315            0.0000000000
     50230      4007  MEOH      HO2            15.0379213240        6.8348328963      -30.3469977916  MEOH      3315            0.0000000000
     50231      4007  MEOH      H1A            15.1657823015        8.8632579751      -29.2952425435  MEOH      3315            0.0000000000
     50232      4007  MEOH      H1B            16.1187230276        9.4751859242      -30.6773790046  MEOH      3315            0.0000000000
     50233      4007  MEOH      H1C            16.8060208630        8.1601192061      -29.6094828290  MEOH      3315            0.0000000000
     50234      4007  MEOH      LP1A           15.4010236406        7.2527419503      -30.8284683962  MEOH      3315            0.0000000000
     50235      4007  MEOH      LP1B           15.0757732136        7.7226541265      -31.1539584978  MEOH      3315            0.0000000000
     50236      4008  MEOH      C1             -6.3761452263      -31.7622697152      -23.6692215945  MEOH      3316            0.0000000000
     50237      4008  MEOH      DC1            -6.3693757478      -31.7606169976      -23.6785484956  MEOH      3316            0.0000000000
     50238      4008  MEOH      O1             -7.6806870144      -31.2766361903      -23.9883633226  MEOH      3316            0.0000000000
     50239      4008  MEOH      DO1            -7.6770470049      -31.2760412000      -23.9928434458  MEOH      3316            0.0000000000
     50240      4008  MEOH      HO1            -8.3131493104      -31.9441164606      -23.6795566956  MEOH      3316            0.0000000000
     50241      4008  MEOH      HO2            -7.7198033073      -30.3778537642      -23.6256512223  MEOH      3316            0.0000000000
     50242      4008  MEOH      H1A            -5.6139282205      -31.0416765023      -24.0354068753  MEOH      3316            0.0000000000
     50243      4008  MEOH      H1B            -6.2035918472      -32.7499903633      -24.1477132386  MEOH      3316            0.0000000000
     50244      4008  MEOH      H1C            -6.2706290703      -31.8629141913      -22.5678324579  MEOH      3316            0.0000000000
     50245      4008  MEOH      LP1A           -7.8033585210      -31.0811964173      -23.7251998818  MEOH      3316            0.0000000000
     50246      4008  MEOH      LP1B           -7.7720736890      -31.3812223319      -24.3096267888  MEOH      3316            0.0000000000
     50247      4009  MEOH      C1            -31.3258625121      -15.6508983943       34.8177128999  MEOH      3317            0.0000000000
     50248      4009  MEOH      DC1           -31.3377600338      -15.6484850092       34.8185576028  MEOH      3317            0.0000000000
     50249      4009  MEOH      O1            -30.8664633990      -16.6352505350       35.7493995156  MEOH      3317            0.0000000000
     50250      4009  MEOH      DO1           -30.8765093354      -16.6349312267       35.7501539641  MEOH      3317            0.0000000000
     50251      4009  MEOH      HO1           -31.5108890000      -17.3600371541       35.7667200710  MEOH      3317            0.0000000000
     50252      4009  MEOH      HO2           -29.9482167433      -16.8223800637       35.4989886132  MEOH      3317            0.0000000000
     50253      4009  MEOH      H1A           -30.6264580907      -14.7876875923       34.8223569264  MEOH      3317            0.0000000000
     50254      4009  MEOH      H1B           -32.3451916373      -15.3046228881       35.0922714698  MEOH      3317            0.0000000000
     50255      4009  MEOH      H1C           -31.3390635469      -16.0693879928       33.7886292349  MEOH      3317            0.0000000000
     50256      4009  MEOH      LP1A          -30.6592791816      -16.8660744197       35.5872420787  MEOH      3317            0.0000000000
     50257      4009  MEOH      LP1B          -30.9875529681      -16.5626694711       36.0696639461  MEOH      3317            0.0000000000
     50258      4010  MEOH      C1            -29.2003858457       31.3382794562      -24.4729487777  MEOH      3318            0.0000000000
     50259      4010  MEOH      DC1           -29.2077641080       31.3310073641      -24.4833190625  MEOH      3318            0.0000000000
     50260      4010  MEOH      O1            -27.9555734765       30.7832747460      -24.0437193175  MEOH      3318            0.0000000000
     50261      4010  MEOH      DO1           -27.9582871178       30.7737056590      -24.0516200110  MEOH      3318            0.0000000000
     50262      4010  MEOH      HO1           -27.6216375778       31.3680321207      -23.3455462516  MEOH      3318            0.0000000000
     50263      4010  MEOH      HO2           -28.1311831098       29.8467648756      -23.8620313452  MEOH      3318            0.0000000000
     50264      4010  MEOH      H1A           -29.5700392780       30.8239181043      -25.3856972314  MEOH      3318            0.0000000000
     50265      4010  MEOH      H1B           -29.0841332696       32.4235205005      -24.6804535163  MEOH      3318            0.0000000000
     50266      4010  MEOH      H1C           -29.9617429358       31.1894751105      -23.6776415107  MEOH      3318            0.0000000000
     50267      4010  MEOH      LP1A          -28.0097672855       30.5530492098      -23.7857285550  MEOH      3318            0.0000000000
     50268      4010  MEOH      LP1B          -27.6939934403       30.9119864160      -24.2373922136  MEOH      3318            0.0000000000
     50269      4011  MEOH      C1             -6.7167062539       28.2359842377        2.8475157971  MEOH      3319            0.0000000000
     50270      4011  MEOH      DC1            -6.7191459114       28.2427418807        2.8468743529  MEOH      3319            0.0000000000
     50271      4011  MEOH      O1             -7.8966285006       28.9435406978        2.4986069076  MEOH      3319            0.0000000000
     50272      4011  MEOH      DO1            -7.8946095595       28.9481835414        2.5063486011  MEOH      3319            0.0000000000
     50273      4011  MEOH      HO1            -8.5097815526       28.8805664213        3.2475912705  MEOH      3319            0.0000000000
     50274      4011  MEOH      HO2            -7.6025709490       29.8066485939        2.1677369695  MEOH      3319            0.0000000000
     50275      4011  MEOH      H1A            -6.0403431946       28.2002514021        1.9668471997  MEOH      3319            0.0000000000
     50276      4011  MEOH      H1B            -6.9684151906       27.2012499975        3.1641996521  MEOH      3319            0.0000000000
     50277      4011  MEOH      H1C            -6.1933525268       28.7627437759        3.6739214270  MEOH      3319            0.0000000000
     50278      4011  MEOH      LP1A           -7.8665251407       29.2796567125        2.5914498524  MEOH      3319            0.0000000000
     50279      4011  MEOH      LP1B           -8.1211800988       28.7293770374        2.3367103162  MEOH      3319            0.0000000000
     50280      4012  MEOH      C1             32.2130696419      -28.4326717669       19.4402807792  MEOH      3320            0.0000000000
     50281      4012  MEOH      DC1            32.2067786932      -28.4382097546       19.4441729640  MEOH      3320            0.0000000000
     50282      4012  MEOH      O1             31.1956038991      -29.4140449012       19.6387897009  MEOH      3320            0.0000000000
     50283      4012  MEOH      DO1            31.1893891274      -29.4184557569       19.6493400180  MEOH      3320            0.0000000000
     50284      4012  MEOH      HO1            30.7667020992      -29.5461387149       18.7788510575  MEOH      3320            0.0000000000
     50285      4012  MEOH      HO2            31.6168167325      -30.1546218967       20.1024980835  MEOH      3320            0.0000000000
     50286      4012  MEOH      H1A            32.6770015094      -28.1397231012       20.4063394230  MEOH      3320            0.0000000000
     50287      4012  MEOH      H1B            31.7538209249      -27.5157587348       19.0128675043  MEOH      3320            0.0000000000
     50288      4012  MEOH      H1C            33.0112301437      -28.8174342248       18.7700430116  MEOH      3320            0.0000000000
     50289      4012  MEOH      LP1A           31.3273334731      -29.7346154523       19.5899855913  MEOH      3320            0.0000000000
     50290      4012  MEOH      LP1B           30.8960874716      -29.2587866780       19.7319819416  MEOH      3320            0.0000000000
     50291      4013  MEOH      C1             12.2563614541       14.0842865534       29.9000423262  MEOH      3321            0.0000000000
     50292      4013  MEOH      DC1            12.2492125487       14.0796888746       29.9021721788  MEOH      3321            0.0000000000
     50293      4013  MEOH      O1             13.2608421043       14.9888277727       29.4386673072  MEOH      3321            0.0000000000
     50294      4013  MEOH      DO1            13.2604790564       14.9894484726       29.4495803648  MEOH      3321            0.0000000000
     50295      4013  MEOH      HO1            13.3514108178       15.6970840169       30.0952268259  MEOH      3321            0.0000000000
     50296      4013  MEOH      HO2            14.0165378062       14.4456115940       29.1652807871  MEOH      3321            0.0000000000
     50297      4013  MEOH      H1A            12.0259727682       13.3475271649       29.1010256444  MEOH      3321            0.0000000000
     50298      4013  MEOH      H1B            11.3331939478       14.6470661657       30.1557019891  MEOH      3321            0.0000000000
     50299      4013  MEOH      H1C            12.6245837722       13.5399220245       30.7958104804  MEOH      3321            0.0000000000
     50300      4013  MEOH      LP1A           13.5755779783       14.8863694642       29.5524373587  MEOH      3321            0.0000000000
     50301      4013  MEOH      LP1B           13.1159788304       15.2364576790       29.2381827408  MEOH      3321            0.0000000000
     50302      4014  MEOH      C1            -21.1964776374      -19.7109099804       18.1170580404  MEOH      3322            0.0000000000
     50303      4014  MEOH      DC1           -21.2046679068      -19.7150850411       18.1276412545  MEOH      3322            0.0000000000
     50304      4014  MEOH      O1            -21.8778048897      -20.9297432984       18.3854420613  MEOH      3322            0.0000000000
     50305      4014  MEOH      DO1           -21.8927343718      -20.9278394613       18.3929925750  MEOH      3322            0.0000000000
     50306      4014  MEOH      HO1           -22.4060210224      -21.1010197702       17.5901106289  MEOH      3322            0.0000000000
     50307      4014  MEOH      HO2           -21.1651917499      -21.5559148026       18.5879062840  MEOH      3322            0.0000000000
     50308      4014  MEOH      H1A           -20.4246873916      -19.4695912640       18.8789150445  MEOH      3322            0.0000000000
     50309      4014  MEOH      H1B           -21.9013382054      -18.8613197277       17.9918023734  MEOH      3322            0.0000000000
     50310      4014  MEOH      H1C           -20.6372961641      -19.8863304165       17.1732017207  MEOH      3322            0.0000000000
     50311      4014  MEOH      LP1A          -21.6821314818      -21.2013035053       18.2831338431  MEOH      3322            0.0000000000
     50312      4014  MEOH      LP1B          -22.1831942284      -20.8639308416       18.5432586393  MEOH      3322            0.0000000000
     50313      4015  MEOH      C1             23.1114602658      -11.9178972436      -32.5404939586  MEOH      3323            0.0000000000
     50314      4015  MEOH      DC1            23.1125832850      -11.9376103081      -32.5391085371  MEOH      3323            0.0000000000
     50315      4015  MEOH      O1             22.6369469941      -10.9284598064      -33.4513949006  MEOH      3323            0.0000000000
     50316      4015  MEOH      DO1            22.6360874308      -10.9452089072      -33.4465479760  MEOH      3323            0.0000000000
     50317      4015  MEOH      HO1            23.2253162395      -10.1593935919      -33.3943090989  MEOH      3323            0.0000000000
     50318      4015  MEOH      HO2            22.5181256902      -11.3827750940      -34.3001464063  MEOH      3323            0.0000000000
     50319      4015  MEOH      H1A            22.3968202676      -12.7681860946      -32.5156033433  MEOH      3323            0.0000000000
     50320      4015  MEOH      H1B            23.1939278145      -11.4898423429      -31.5185893115  MEOH      3323            0.0000000000
     50321      4015  MEOH      H1C            24.1093403793      -12.2744857214      -32.8742617485  MEOH      3323            0.0000000000
     50322      4015  MEOH      LP1A           22.7821525066      -10.9761538112      -33.7662609690  MEOH      3323            0.0000000000
     50323      4015  MEOH      LP1B           22.4035083789      -10.7216365944      -33.2925535585  MEOH      3323            0.0000000000
     50324      4016  MEOH      C1            -35.5382332510       -2.3694534902      -12.6975726320  MEOH      3324            0.0000000000
     50325      4016  MEOH      DC1           -35.5392580846       -2.3860110471      -12.6924282769  MEOH      3324            0.0000000000
     50326      4016  MEOH      O1            -35.8000962456       -3.7242350932      -12.3193115157  MEOH      3324            0.0000000000
     50327      4016  MEOH      DO1           -35.8127025314       -3.7424981541      -12.3041264085  MEOH      3324            0.0000000000
     50328      4016  MEOH      HO1           -36.5874048504       -3.9634430287      -12.8329502264  MEOH      3324            0.0000000000
     50329      4016  MEOH      HO2           -34.9670499265       -4.2091754876      -12.4277856790  MEOH      3324            0.0000000000
     50330      4016  MEOH      H1A           -34.7634796858       -1.9203470255      -12.0400155643  MEOH      3324            0.0000000000
     50331      4016  MEOH      H1B           -36.4730380825       -1.7716757646      -12.6416913494  MEOH      3324            0.0000000000
     50332      4016  MEOH      H1C           -35.1569681478       -2.3312717347      -13.7404053496  MEOH      3324            0.0000000000
     50333      4016  MEOH      LP1A          -35.6254324606       -3.9430559141      -12.5293353491  MEOH      3324            0.0000000000
     50334      4016  MEOH      LP1B          -36.0094991558       -3.7319081393      -12.0389696787  MEOH      3324            0.0000000000
     50335      4017  MEOH      C1            -19.4964948993      -21.2649145563        4.8520067237  MEOH      3325            0.0000000000
     50336      4017  MEOH      DC1           -19.4808380783      -21.2615443160        4.8426493271  MEOH      3325            0.0000000000
     50337      4017  MEOH      O1            -20.7227391675      -20.9696300007        5.5256227971  MEOH      3325            0.0000000000
     50338      4017  MEOH      DO1           -20.7132729091      -20.9616542035        5.5083214235  MEOH      3325            0.0000000000
     50339      4017  MEOH      HO1           -20.5740329086      -20.9422040973        6.4837638454  MEOH      3325            0.0000000000
     50340      4017  MEOH      HO2           -21.1252916078      -20.2245152179        5.0527005050  MEOH      3325            0.0000000000
     50341      4017  MEOH      H1A           -19.7215797958      -21.5564355031        3.8038305319  MEOH      3325            0.0000000000
     50342      4017  MEOH      H1B           -18.9859851937      -22.1161444856        5.3511143759  MEOH      3325            0.0000000000
     50343      4017  MEOH      H1C           -18.8294931407      -20.3764162249        4.8513992930  MEOH      3325            0.0000000000
     50344      4017  MEOH      LP1A          -20.7614480028      -20.6232332454        5.5574176710  MEOH      3325            0.0000000000
     50345      4017  MEOH      LP1B          -20.8947718363      -21.2660750555        5.5965106687  MEOH      3325            0.0000000000
     50346      4018  MEOH      C1             21.4034956791       16.8324775253       27.3423046517  MEOH      3326            0.0000000000
     50347      4018  MEOH      DC1            21.4046277767       16.8432661053       27.3291258185  MEOH      3326            0.0000000000
     50348      4018  MEOH      O1             22.0780539427       17.4480958632       26.2410703415  MEOH      3326            0.0000000000
     50349      4018  MEOH      DO1            22.0693113462       17.4590114928       26.2325553820  MEOH      3326            0.0000000000
     50350      4018  MEOH      HO1            22.8966398971       17.8369434145       26.5869238036  MEOH      3326            0.0000000000
     50351      4018  MEOH      HO2            22.1182498090       16.7711613051       25.5474970598  MEOH      3326            0.0000000000
     50352      4018  MEOH      H1A            20.4217289309       16.4303780972       27.0125000096  MEOH      3326            0.0000000000
     50353      4018  MEOH      H1B            21.2443455483       17.5702383809       28.1575967207  MEOH      3326            0.0000000000
     50354      4018  MEOH      H1C            22.0050984734       15.9852241783       27.7354418347  MEOH      3326            0.0000000000
     50355      4018  MEOH      LP1A           22.2893140649       17.2164548569       26.0854695542  MEOH      3326            0.0000000000
     50356      4018  MEOH      LP1B           21.9712142568       17.7794717863       26.2053592914  MEOH      3326            0.0000000000
     50357      4019  MEOH      C1             21.4349180324      -32.3612531126      -21.5239894576  MEOH      3327            0.0000000000
     50358      4019  MEOH      DC1            21.4264912840      -32.3651220596      -21.5170250684  MEOH      3327            0.0000000000
     50359      4019  MEOH      O1             22.6084806473      -33.0503022068      -21.0905069763  MEOH      3327            0.0000000000
     50360      4019  MEOH      DO1            22.6040885654      -33.0514808767      -21.0854297748  MEOH      3327            0.0000000000
     50361      4019  MEOH      HO1            23.0499408829      -33.4021891403      -21.8792962044  MEOH      3327            0.0000000000
     50362      4019  MEOH      HO2            23.0790837599      -32.4282286157      -20.5139159957  MEOH      3327            0.0000000000
     50363      4019  MEOH      H1A            20.8740985274      -31.9897653531      -20.6397952892  MEOH      3327            0.0000000000
     50364      4019  MEOH      H1B            20.7877279848      -33.0509195257      -22.1069356670  MEOH      3327            0.0000000000
     50365      4019  MEOH      H1C            21.7177926907      -31.4942182998      -22.1584605457  MEOH      3327            0.0000000000
     50366      4019  MEOH      LP1A           22.8789106871      -32.8286005351      -21.0758113195  MEOH      3327            0.0000000000
     50367      4019  MEOH      LP1B           22.5322789258      -33.3848929454      -21.0216423606  MEOH      3327            0.0000000000
     50368      4020  MEOH      C1             32.5993361565      -26.6185390226       36.7176167653  MEOH      3328            0.0000000000
     50369      4020  MEOH      DC1            32.5962934641      -26.6123650732       36.7237087260  MEOH      3328            0.0000000000
     50370      4020  MEOH      O1             32.7915558430      -26.5272374653       35.3023944580  MEOH      3328            0.0000000000
     50371      4020  MEOH      DO1            32.7896619060      -26.5291799312       35.3111330767  MEOH      3328            0.0000000000
     50372      4020  MEOH      HO1            33.2580004060      -25.7013484083       35.0993261551  MEOH      3328            0.0000000000
     50373      4020  MEOH      HO2            33.1782752253      -27.3757419342       35.0352085948  MEOH      3328            0.0000000000
     50374      4020  MEOH      H1A            32.0097873574      -27.5302792240       36.9531651021  MEOH      3328            0.0000000000
     50375      4020  MEOH      H1B            32.0496131060      -25.7268122077       37.0876827800  MEOH      3328            0.0000000000
     50376      4020  MEOH      H1C            33.5821144210      -26.6870279622       37.2312091611  MEOH      3328            0.0000000000
     50377      4020  MEOH      LP1A           33.0932009640      -26.6802678981       35.2124394271  MEOH      3328            0.0000000000
     50378      4020  MEOH      LP1B           32.5167595222      -26.3690196395       35.1542252921  MEOH      3328            0.0000000000
     50379      4021  MEOH      C1            -12.0757764775       34.5641295879      -36.9434836959  MEOH      3329            0.0000000000
     50380      4021  MEOH      DC1           -12.0779024206       34.5642571316      -36.9514515683  MEOH      3329            0.0000000000
     50381      4021  MEOH      O1            -11.8112519947       33.8739040994      -35.7210662946  MEOH      3329            0.0000000000
     50382      4021  MEOH      DO1           -11.8090288820       33.8850045897      -35.7188967246  MEOH      3329            0.0000000000
     50383      4021  MEOH      HO1           -12.6362656344       33.8567516990      -35.2112052438  MEOH      3329            0.0000000000
     50384      4021  MEOH      HO2           -11.3961429342       33.0354254422      -35.9770702190  MEOH      3329            0.0000000000
     50385      4021  MEOH      H1A           -11.1381645985       34.6267365474      -37.5361769840  MEOH      3329            0.0000000000
     50386      4021  MEOH      H1B           -12.4320032920       35.5931493944      -36.7231618987  MEOH      3329            0.0000000000
     50387      4021  MEOH      H1C           -12.8390533498       34.0230395511      -37.5426088833  MEOH      3329            0.0000000000
     50388      4021  MEOH      LP1A          -11.8659864326       33.5307725936      -35.7630771386  MEOH      3329            0.0000000000
     50389      4021  MEOH      LP1B          -11.7012756513       34.0998202912      -35.4774126918  MEOH      3329            0.0000000000
     50390      4022  MEOH      C1              4.6447188990        6.8913133323      -21.5822488503  MEOH      3330            0.0000000000
     50391      4022  MEOH      DC1             4.6509619035        6.8930884068      -21.5940014204  MEOH      3330            0.0000000000
     50392      4022  MEOH      O1              5.4353784521        6.3730559015      -22.6550616875  MEOH      3330            0.0000000000
     50393      4022  MEOH      DO1             5.4467041265        6.3699902491      -22.6567429590  MEOH      3330            0.0000000000
     50394      4022  MEOH      HO1             5.0896022975        6.7727649490      -23.4684321616  MEOH      3330            0.0000000000
     50395      4022  MEOH      HO2             6.3601544822        6.4998881986      -22.3912381414  MEOH      3330            0.0000000000
     50396      4022  MEOH      H1A             4.9099557965        6.3871104551      -20.6284407735  MEOH      3330            0.0000000000
     50397      4022  MEOH      H1B             3.5652042484        6.7162367002      -21.7779968825  MEOH      3330            0.0000000000
     50398      4022  MEOH      H1C             4.8286932786        7.9804357375      -21.4627213832  MEOH      3330            0.0000000000
     50399      4022  MEOH      LP1A            5.7148139659        6.5772285888      -22.7073044612  MEOH      3330            0.0000000000
     50400      4022  MEOH      LP1B            5.2944615761        6.0759524824      -22.7749449323  MEOH      3330            0.0000000000
     50401      4023  MEOH      C1            -23.9510377388       36.8164635814       13.2745369143  MEOH      3331            0.0000000000
     50402      4023  MEOH      DC1           -23.9674508921       36.8092219220       13.2688406615  MEOH      3331            0.0000000000
     50403      4023  MEOH      O1            -22.5742824288       36.6176367214       13.5971508459  MEOH      3331            0.0000000000
     50404      4023  MEOH      DO1           -22.5875095038       36.6175953773       13.5872555343  MEOH      3331            0.0000000000
     50405      4023  MEOH      HO1           -22.2048175037       35.9243924591       13.0281094919  MEOH      3331            0.0000000000
     50406      4023  MEOH      HO2           -22.1738321458       37.5008223712       13.6200130147  MEOH      3331            0.0000000000
     50407      4023  MEOH      H1A           -24.3967219513       37.5111139941       14.0182757051  MEOH      3331            0.0000000000
     50408      4023  MEOH      H1B           -24.4935156475       35.8473889855       13.3050843872  MEOH      3331            0.0000000000
     50409      4023  MEOH      H1C           -24.0437380225       37.2765976592       12.2675591152  MEOH      3331            0.0000000000
     50410      4023  MEOH      LP1A          -22.3743892584       36.8324045782       13.4063171797  MEOH      3331            0.0000000000
     50411      4023  MEOH      LP1B          -22.5440610024       36.3776714789       13.8501396752  MEOH      3331            0.0000000000
     50412      4024  MEOH      C1              0.8983269505       18.1799634543      -27.2539389673  MEOH      3332            0.0000000000
     50413      4024  MEOH      DC1             0.9145102355       18.1724192264      -27.2541812304  MEOH      3332            0.0000000000
     50414      4024  MEOH      O1              0.7009030223       19.3868247383      -26.5152473034  MEOH      3332            0.0000000000
     50415      4024  MEOH      DO1             0.7125667916       19.3818561556      -26.5144167740  MEOH      3332            0.0000000000
     50416      4024  MEOH      HO1             0.5166974476       19.1711683387      -25.5876371356  MEOH      3332            0.0000000000
     50417      4024  MEOH      HO2             1.3925488243       20.0125799253      -26.7816239751  MEOH      3332            0.0000000000
     50418      4024  MEOH      H1A             1.0058297179       18.4139241831      -28.3346917294  MEOH      3332            0.0000000000
     50419      4024  MEOH      H1B             0.0160853181       17.5134260456      -27.1457789705  MEOH      3332            0.0000000000
     50420      4024  MEOH      H1C             1.8260941346       17.6740422284      -26.9109917895  MEOH      3332            0.0000000000
     50421      4024  MEOH      LP1A            1.0070352842       19.5028527305      -26.3914711215  MEOH      3332            0.0000000000
     50422      4024  MEOH      LP1B            0.3634391747       19.4791676555      -26.5247834045  MEOH      3332            0.0000000000
     50423      4025  MEOH      C1             12.1453824002       16.5437547722      -31.8617249678  MEOH      3333            0.0000000000
     50424      4025  MEOH      DC1            12.1291773587       16.5518109432      -31.8596048542  MEOH      3333            0.0000000000
     50425      4025  MEOH      O1             13.5443783034       16.8035765732      -31.9648427469  MEOH      3333            0.0000000000
     50426      4025  MEOH      DO1            13.5267342853       16.8084810575      -31.9462347016  MEOH      3333            0.0000000000
     50427      4025  MEOH      HO1            13.9390639302       16.1913270921      -32.6053689593  MEOH      3333            0.0000000000
     50428      4025  MEOH      HO2            13.6284869744       17.7570713047      -32.1219208455  MEOH      3333            0.0000000000
     50429      4025  MEOH      H1A            11.7196255241       17.1985109716      -31.0715690327  MEOH      3333            0.0000000000
     50430      4025  MEOH      H1B            11.9678914010       15.4828284916      -31.5837800550  MEOH      3333            0.0000000000
     50431      4025  MEOH      H1C            11.6333518071       16.7578161914      -32.8241819181  MEOH      3333            0.0000000000
     50432      4025  MEOH      LP1A           13.6034442277       17.0450571119      -32.2112131307  MEOH      3333            0.0000000000
     50433      4025  MEOH      LP1B           13.7190933999       16.6141145449      -31.7280331718  MEOH      3333            0.0000000000
     50434      4026  MEOH      C1              5.6387984057       16.7939514141       24.0602175587  MEOH      3334            0.0000000000
     50435      4026  MEOH      DC1             5.6279970576       16.8059162008       24.0726087520  MEOH      3334            0.0000000000
     50436      4026  MEOH      O1              6.0933222391       17.1008658157       22.7414987676  MEOH      3334            0.0000000000
     50437      4026  MEOH      DO1             6.0856110871       17.1137249890       22.7479973916  MEOH      3334            0.0000000000
     50438      4026  MEOH      HO1             5.9676300804       16.3030657924       22.2042682732  MEOH      3334            0.0000000000
     50439      4026  MEOH      HO2             5.6868944173       17.9457206771       22.4926279382  MEOH      3334            0.0000000000
     50440      4026  MEOH      H1A             5.9162565026       17.6210109568       24.7481932249  MEOH      3334            0.0000000000
     50441      4026  MEOH      H1B             6.1117839291       15.8525074476       24.4127639441  MEOH      3334            0.0000000000
     50442      4026  MEOH      H1C             4.5350747715       16.6670536726       24.0567386211  MEOH      3334            0.0000000000
     50443      4026  MEOH      LP1A            5.8305923970       17.2336922189       22.5522101607  MEOH      3334            0.0000000000
     50444      4026  MEOH      LP1B            6.4349218188       17.0301216244       22.7131264831  MEOH      3334            0.0000000000
     50445      4027  MEOH      C1             16.7445955867       34.4412749290       31.4289893174  MEOH      3335            0.0000000000
     50446      4027  MEOH      DC1            16.7341576447       34.4513754039       31.4370578272  MEOH      3335            0.0000000000
     50447      4027  MEOH      O1             16.3919185131       35.7633305181       31.8517160697  MEOH      3335            0.0000000000
     50448      4027  MEOH      DO1            16.3792833624       35.7648730359       31.8682129129  MEOH      3335            0.0000000000
     50449      4027  MEOH      HO1            16.7640138192       36.3674100408       31.1902532866  MEOH      3335            0.0000000000
     50450      4027  MEOH      HO2            15.4359050353       35.7467492231       32.0150050513  MEOH      3335            0.0000000000
     50451      4027  MEOH      H1A            16.4284822768       33.6979755952       32.1918126754  MEOH      3335            0.0000000000
     50452      4027  MEOH      H1B            17.8443451045       34.3590841535       31.2943911127  MEOH      3335            0.0000000000
     50453      4027  MEOH      H1C            16.2451515913       34.1999119245       30.4663779751  MEOH      3335            0.0000000000
     50454      4027  MEOH      LP1A           16.0811991137       35.8529240331       31.7178263505  MEOH      3335            0.0000000000
     50455      4027  MEOH      LP1B           16.6382705203       35.8903898605       32.0654135475  MEOH      3335            0.0000000000
     50456      4028  MEOH      C1              0.4805582390       -5.0115731349      -20.3799186786  MEOH      3336            0.0000000000
     50457      4028  MEOH      DC1             0.4849759178       -5.0069349229      -20.3773297676  MEOH      3336            0.0000000000
     50458      4028  MEOH      O1              0.7193717345       -4.3745032190      -21.6366016829  MEOH      3336            0.0000000000
     50459      4028  MEOH      DO1             0.7166012643       -4.3792511766      -21.6386221957  MEOH      3336            0.0000000000
     50460      4028  MEOH      HO1             1.2132614581       -4.9884555980      -22.2023184118  MEOH      3336            0.0000000000
     50461      4028  MEOH      HO2            -0.1212826784       -3.9814402423      -21.9189164984  MEOH      3336            0.0000000000
     50462      4028  MEOH      H1A             0.0709967229       -4.2640331070      -19.6673428780  MEOH      3336            0.0000000000
     50463      4028  MEOH      H1B             1.4323305498       -5.4119685336      -19.9698772258  MEOH      3336            0.0000000000
     50464      4028  MEOH      H1C            -0.2538576679       -5.8364857163      -20.5002245800  MEOH      3336            0.0000000000
     50465      4028  MEOH      LP1A            0.4535996974       -4.4378599420      -21.8553507399  MEOH      3336            0.0000000000
     50466      4028  MEOH      LP1B            1.0196316001       -4.1950533648      -21.6246952588  MEOH      3336            0.0000000000
     50467      4029  MEOH      C1            -21.0386183635        5.2590182700       22.2460846577  MEOH      3337            0.0000000000
     50468      4029  MEOH      DC1           -21.0483932904        5.2719230865       22.2359376132  MEOH      3337            0.0000000000
     50469      4029  MEOH      O1            -20.8231487826        6.5964227844       21.7732607224  MEOH      3337            0.0000000000
     50470      4029  MEOH      DO1           -20.8130406635        6.6111602830       21.7753959647  MEOH      3337            0.0000000000
     50471      4029  MEOH      HO1           -20.6868565000        6.5468545217       20.8141635422  MEOH      3337            0.0000000000
     50472      4029  MEOH      HO2           -21.5494068986        7.1257883423       22.1382555933  MEOH      3337            0.0000000000
     50473      4029  MEOH      H1A           -21.1317950883        5.2597876091       23.3531702493  MEOH      3337            0.0000000000
     50474      4029  MEOH      H1B           -20.1851587379        4.6039267128       21.9689877086  MEOH      3337            0.0000000000
     50475      4029  MEOH      H1C           -21.9714831130        4.8423652449       21.8096392220  MEOH      3337            0.0000000000
     50476      4029  MEOH      LP1A          -21.1291874255        6.7452066842       21.6913845952  MEOH      3337            0.0000000000
     50477      4029  MEOH      LP1B          -20.4823060101        6.6747733873       21.7869496774  MEOH      3337            0.0000000000
     50478      4030  MEOH      C1             19.5638294804        5.3885723418      -18.5177284915  MEOH      3338            0.0000000000
     50479      4030  MEOH      DC1            19.5597345734        5.3985003424      -18.5125139795  MEOH      3338            0.0000000000
     50480      4030  MEOH      O1             18.7439820066        5.4099165552      -19.6841171333  MEOH      3338            0.0000000000
     50481      4030  MEOH      DO1            18.7464938835        5.4198161195      -19.6742160938  MEOH      3338            0.0000000000
     50482      4030  MEOH      HO1            17.8935528963        4.9786467262      -19.5061377438  MEOH      3338            0.0000000000
     50483      4030  MEOH      HO2            18.8111447570        6.3048953929      -20.0520873040  MEOH      3338            0.0000000000
     50484      4030  MEOH      H1A            20.6096551824        5.6229941315      -18.8103306543  MEOH      3338            0.0000000000
     50485      4030  MEOH      H1B            19.5509538958        4.3813939274      -18.0489568399  MEOH      3338            0.0000000000
     50486      4030  MEOH      H1C            19.2193999351        6.1365765501      -17.7719544013  MEOH      3338            0.0000000000
     50487      4030  MEOH      LP1A           18.5527173327        5.7029611202      -19.6906522268  MEOH      3338            0.0000000000
     50488      4030  MEOH      LP1B           18.8058750190        5.1259625193      -19.8791539517  MEOH      3338            0.0000000000
     50489      4031  MEOH      C1            -26.4362587659       35.7840765603       -5.5268623620  MEOH      3339            0.0000000000
     50490      4031  MEOH      DC1           -26.4404845845       35.7996700202       -5.5258869891  MEOH      3339            0.0000000000
     50491      4031  MEOH      O1            -27.6842465709       36.4541242884       -5.7379469655  MEOH      3339            0.0000000000
     50492      4031  MEOH      DO1           -27.6878569226       36.4706772272       -5.7378096990  MEOH      3339            0.0000000000
     50493      4031  MEOH      HO1           -27.5132228781       37.1644530426       -6.3759782793  MEOH      3339            0.0000000000
     50494      4031  MEOH      HO2           -28.3147904422       35.7552929068       -5.9723592676  MEOH      3339            0.0000000000
     50495      4031  MEOH      H1A           -26.5684782672       34.9643288597       -4.7887209726  MEOH      3339            0.0000000000
     50496      4031  MEOH      H1B           -25.6774888436       36.4893885411       -5.1254595508  MEOH      3339            0.0000000000
     50497      4031  MEOH      H1C           -26.0736157709       35.3413041031       -6.4791037232  MEOH      3339            0.0000000000
     50498      4031  MEOH      LP1A          -27.8596797277       36.3009273383       -5.9992014429  MEOH      3339            0.0000000000
     50499      4031  MEOH      LP1B          -27.7225411502       36.7121651384       -5.5046050598  MEOH      3339            0.0000000000
     50500      4032  MEOH      C1             -0.8484726156       -0.3340386890      -28.8061037461  MEOH      3340            0.0000000000
     50501      4032  MEOH      DC1            -0.8309888555       -0.3293260175      -28.8016850769  MEOH      3340            0.0000000000
     50502      4032  MEOH      O1              0.5129713097       -0.0260568038      -29.1127256998  MEOH      3340            0.0000000000
     50503      4032  MEOH      DO1             0.5299189546       -0.0295354828      -29.1103806031  MEOH      3340            0.0000000000
     50504      4032  MEOH      HO1             0.7450098695        0.7482254889      -28.5764934386  MEOH      3340            0.0000000000
     50505      4032  MEOH      HO2             1.0023802842       -0.8598473992      -29.0341629909  MEOH      3340            0.0000000000
     50506      4032  MEOH      H1A            -1.1883889686       -1.1639919997      -29.4618135724  MEOH      3340            0.0000000000
     50507      4032  MEOH      H1B            -1.5059879017        0.5455396461      -28.9744385347  MEOH      3340            0.0000000000
     50508      4032  MEOH      H1C            -0.9443528668       -0.6687676811      -27.7510755562  MEOH      3340            0.0000000000
     50509      4032  MEOH      LP1A            0.7266940156       -0.2027267232      -28.8991599148  MEOH      3340            0.0000000000
     50510      4032  MEOH      LP1B            0.5276684556        0.1933837516      -29.3849936497  MEOH      3340            0.0000000000
     50511      4033  MEOH      C1             25.6275893916        3.5842510653       14.9988614259  MEOH      3341            0.0000000000
     50512      4033  MEOH      DC1            25.6392447991        3.5801976652       14.9858982252  MEOH      3341            0.0000000000
     50513      4033  MEOH      O1             24.5537620136        4.3651451840       15.5253903298  MEOH      3341            0.0000000000
     50514      4033  MEOH      DO1            24.5756895616        4.3815314157       15.5098519773  MEOH      3341            0.0000000000
     50515      4033  MEOH      HO1            23.8058677012        3.7729594274       15.7010893001  MEOH      3341            0.0000000000
     50516      4033  MEOH      HO2            24.9407693771        4.8761880549       16.2533741791  MEOH      3341            0.0000000000
     50517      4033  MEOH      H1A            26.4912720940        4.2428397052       14.7651218386  MEOH      3341            0.0000000000
     50518      4033  MEOH      H1B            25.3061710898        3.0749151688       14.0652725333  MEOH      3341            0.0000000000
     50519      4033  MEOH      H1C            25.9490457810        2.8397883210       15.7583099180  MEOH      3341            0.0000000000
     50520      4033  MEOH      LP1A           24.5792001568        4.3840592763       15.8739518854  MEOH      3341            0.0000000000
     50521      4033  MEOH      LP1B           24.3548087666        4.4865672743       15.2642882780  MEOH      3341            0.0000000000
     50522      4034  MEOH      C1            -24.6326515351      -14.8949315341      -29.8587512905  MEOH      3342            0.0000000000
     50523      4034  MEOH      DC1           -24.6302496930      -14.9006873137      -29.8565643971  MEOH      3342            0.0000000000
     50524      4034  MEOH      O1            -23.8858066862      -16.0702386685      -30.1858775828  MEOH      3342            0.0000000000
     50525      4034  MEOH      DO1           -23.8796912878      -16.0758385063      -30.1809845892  MEOH      3342            0.0000000000
     50526      4034  MEOH      HO1           -23.5451520887      -15.9361382555      -31.0841378593  MEOH      3342            0.0000000000
     50527      4034  MEOH      HO2           -23.2707563998      -16.2084810221      -29.4486515668  MEOH      3342            0.0000000000
     50528      4034  MEOH      H1A           -25.0802882536      -15.0031462894      -28.8476964277  MEOH      3342            0.0000000000
     50529      4034  MEOH      H1B           -25.4468970840      -14.7414520958      -30.5988656385  MEOH      3342            0.0000000000
     50530      4034  MEOH      H1C           -23.9640851731      -14.0076181313      -29.8626173005  MEOH      3342            0.0000000000
     50531      4034  MEOH      LP1A          -23.5529358384      -16.0326331027      -30.0844733417  MEOH      3342            0.0000000000
     50532      4034  MEOH      LP1B          -24.0961196301      -16.3089792144      -30.3317248226  MEOH      3342            0.0000000000
     50533      4035  MEOH      C1             14.0181317417      -32.3947051774       -9.7273305715  MEOH      3343            0.0000000000
     50534      4035  MEOH      DC1            14.0274956383      -32.3767394673       -9.7406515141  MEOH      3343            0.0000000000
     50535      4035  MEOH      O1             14.4801424174      -31.6098163653       -8.6360800405  MEOH      3343            0.0000000000
     50536      4035  MEOH      DO1            14.4908108026      -31.5946468650       -8.6438961277  MEOH      3343            0.0000000000
     50537      4035  MEOH      HO1            13.9498473920      -31.9006211546       -7.8777135325  MEOH      3343            0.0000000000
     50538      4035  MEOH      HO2            15.4430836624      -31.7257321456       -8.6216685321  MEOH      3343            0.0000000000
     50539      4035  MEOH      H1A            14.5633776063      -32.0825905818      -10.6436342476  MEOH      3343            0.0000000000
     50540      4035  MEOH      H1B            12.9285014526      -32.2475124515       -9.8865823678  MEOH      3343            0.0000000000
     50541      4035  MEOH      H1C            14.2056309175      -33.4705571228       -9.5231060569  MEOH      3343            0.0000000000
     50542      4035  MEOH      LP1A           14.7480166032      -31.7703798404       -8.4780838665  MEOH      3343            0.0000000000
     50543      4035  MEOH      LP1B           14.2975744667      -31.3118013412       -8.6172123739  MEOH      3343            0.0000000000
     50544      4036  MEOH      C1             31.0277883287       -3.4216046855       -8.0182104983  MEOH      3344            0.0000000000
     50545      4036  MEOH      DC1            31.0203879024       -3.4356382956       -8.0105996705  MEOH      3344            0.0000000000
     50546      4036  MEOH      O1             31.7678489950       -3.1750484645       -6.8205618189  MEOH      3344            0.0000000000
     50547      4036  MEOH      DO1            31.7516127989       -3.1796791136       -6.8107974760  MEOH      3344            0.0000000000
     50548      4036  MEOH      HO1            32.7055246925       -3.2400932404       -7.0602146164  MEOH      3344            0.0000000000
     50549      4036  MEOH      HO2            31.4383298032       -2.3298585636       -6.4770925567  MEOH      3344            0.0000000000
     50550      4036  MEOH      H1A            29.9400170776       -3.3646229484       -7.7995148447  MEOH      3344            0.0000000000
     50551      4036  MEOH      H1B            31.2652328670       -4.4323400931       -8.4136280343  MEOH      3344            0.0000000000
     50552      4036  MEOH      H1C            31.2795975166       -2.6560584659       -8.7829667461  MEOH      3344            0.0000000000
     50553      4036  MEOH      LP1A           31.8295725781       -2.8322300995       -6.7864184759  MEOH      3344            0.0000000000
     50554      4036  MEOH      LP1B           31.8202707154       -3.4751827054       -6.6483079346  MEOH      3344            0.0000000000
     50555      4037  MEOH      C1             28.5741758531        4.6542166968      -23.8678854445  MEOH      3345            0.0000000000
     50556      4037  MEOH      DC1            28.5840338746        4.6562481479      -23.8714145783  MEOH      3345            0.0000000000
     50557      4037  MEOH      O1             27.2882768027        4.4821128046      -23.2630467092  MEOH      3345            0.0000000000
     50558      4037  MEOH      DO1            27.2942906960        4.5151741940      -23.2741392333  MEOH      3345            0.0000000000
     50559      4037  MEOH      HO1            27.0752522470        3.5366259142      -23.2233594461  MEOH      3345            0.0000000000
     50560      4037  MEOH      HO2            27.3389430940        4.9747143389      -22.4289743763  MEOH      3345            0.0000000000
     50561      4037  MEOH      H1A            28.8665901557        5.7258797826      -23.8490943271  MEOH      3345            0.0000000000
     50562      4037  MEOH      H1B            28.5552934723        4.3057393389      -24.9226498675  MEOH      3345            0.0000000000
     50563      4037  MEOH      H1C            29.3330997718        4.0781074281      -23.2965242657  MEOH      3345            0.0000000000
     50564      4037  MEOH      LP1A           27.3221180016        4.4538732665      -22.9158330837  MEOH      3345            0.0000000000
     50565      4037  MEOH      LP1B           27.0384076379        4.4929432599      -23.5078897237  MEOH      3345            0.0000000000
     50566      4038  MEOH      C1             11.3536301168      -12.8263596825      -28.8690139576  MEOH      3346            0.0000000000
     50567      4038  MEOH      DC1            11.3559705949      -12.8335341235      -28.8619895698  MEOH      3346            0.0000000000
     50568      4038  MEOH      O1             12.0597451473      -13.8511125504      -29.5667611055  MEOH      3346            0.0000000000
     50569      4038  MEOH      DO1            12.0567809019      -13.8736234973      -29.5653171942  MEOH      3346            0.0000000000
     50570      4038  MEOH      HO1            12.1137923514      -13.5225533511      -30.4778196944  MEOH      3346            0.0000000000
     50571      4038  MEOH      HO2            12.8833953852      -13.9671049580      -29.0677159690  MEOH      3346            0.0000000000
     50572      4038  MEOH      H1A            11.3126431838      -13.0504269321      -27.7816157146  MEOH      3346            0.0000000000
     50573      4038  MEOH      H1B            10.3170229364      -12.7645349994      -29.2639117471  MEOH      3346            0.0000000000
     50574      4038  MEOH      H1C            11.8612959069      -11.8493162751      -29.0172793496  MEOH      3346            0.0000000000
     50575      4038  MEOH      LP1A           12.4042709663      -13.7917624419      -29.5500421142  MEOH      3346            0.0000000000
     50576      4038  MEOH      LP1B           11.8344771788      -14.0885026166      -29.6908590461  MEOH      3346            0.0000000000
     50577      4039  MEOH      C1             -9.4319170571      -18.4181640225       26.6793751241  MEOH      3347            0.0000000000
     50578      4039  MEOH      DC1            -9.4142433957      -18.4270022930       26.6801063033  MEOH      3347            0.0000000000
     50579      4039  MEOH      O1             -8.1199056450      -18.7804459606       27.1039883881  MEOH      3347            0.0000000000
     50580      4039  MEOH      DO1            -8.0950437226      -18.7877229975       27.0969835347  MEOH      3347            0.0000000000
     50581      4039  MEOH      HO1            -7.9630120881      -19.6754270022       26.7644396469  MEOH      3347            0.0000000000
     50582      4039  MEOH      HO2            -7.5452060045      -18.0223340160       26.9145507922  MEOH      3347            0.0000000000
     50583      4039  MEOH      H1A            -9.7798766281      -17.5093577035       27.2153939794  MEOH      3347            0.0000000000
     50584      4039  MEOH      H1B           -10.1154358521      -19.2663208111       26.8978999953  MEOH      3347            0.0000000000
     50585      4039  MEOH      H1C            -9.4443876122      -18.2163168444       25.5869360174  MEOH      3347            0.0000000000
     50586      4039  MEOH      LP1A           -7.8846316691      -18.6789705027       26.8655583402  MEOH      3347            0.0000000000
     50587      4039  MEOH      LP1B           -8.1337372451      -18.9325714253       27.4188955646  MEOH      3347            0.0000000000
     50588      4040  MEOH      C1              5.9797721111      -16.1131259879      -19.1650271987  MEOH      3348            0.0000000000
     50589      4040  MEOH      DC1             5.9788931487      -16.1093542972      -19.1656757368  MEOH      3348            0.0000000000
     50590      4040  MEOH      O1              4.7072976918      -16.4710873800      -18.6176249848  MEOH      3348            0.0000000000
     50591      4040  MEOH      DO1             4.7065146746      -16.4723341181      -18.6203413115  MEOH      3348            0.0000000000
     50592      4040  MEOH      HO1             4.0223872020      -16.1199893732      -19.2079874248  MEOH      3348            0.0000000000
     50593      4040  MEOH      HO2             4.7513981870      -17.4231436631      -18.4372254816  MEOH      3348            0.0000000000
     50594      4040  MEOH      H1A             6.7851043553      -16.4654977232      -18.4856192671  MEOH      3348            0.0000000000
     50595      4040  MEOH      H1B             6.0544936273      -15.0106635649      -19.2804148100  MEOH      3348            0.0000000000
     50596      4040  MEOH      H1C             6.1165084656      -16.5889370200      -20.1596266323  MEOH      3348            0.0000000000
     50597      4040  MEOH      LP1A            4.6082143061      -16.7838294090      -18.7395877086  MEOH      3348            0.0000000000
     50598      4040  MEOH      LP1B            4.5986937814      -16.2235266522      -18.3953214161  MEOH      3348            0.0000000000
     50599      4041  MEOH      C1            -25.7647865775       -8.5125262229       25.2480485831  MEOH      3349            0.0000000000
     50600      4041  MEOH      DC1           -25.7795569564       -8.5089532217       25.2464624658  MEOH      3349            0.0000000000
     50601      4041  MEOH      O1            -25.2916995464       -9.8338766486       25.5133501603  MEOH      3349            0.0000000000
     50602      4041  MEOH      DO1           -25.3000844254       -9.8340024627       25.5095290834  MEOH      3349            0.0000000000
     50603      4041  MEOH      HO1           -26.0496558666      -10.4381330485       25.4776231413  MEOH      3349            0.0000000000
     50604      4041  MEOH      HO2           -24.5347778472       -9.9643091745       24.9209340077  MEOH      3349            0.0000000000
     50605      4041  MEOH      H1A           -24.9339815680       -7.7877984086       25.3853571125  MEOH      3349            0.0000000000
     50606      4041  MEOH      H1B           -26.5894275877       -8.2591242271       25.9481026056  MEOH      3349            0.0000000000
     50607      4041  MEOH      H1C           -26.1250609448       -8.4406727451       24.1995446690  MEOH      3349            0.0000000000
     50608      4041  MEOH      LP1A          -25.1948938558       -9.9885812428       25.2146945949  MEOH      3349            0.0000000000
     50609      4041  MEOH      LP1B          -25.2985281171       -9.8965994861       25.8576163600  MEOH      3349            0.0000000000
     50610      4042  MEOH      C1            -36.2001433123       -2.9832506257       -2.5875580992  MEOH      3350            0.0000000000
     50611      4042  MEOH      DC1           -36.2062344811       -2.9883059430       -2.5802002695  MEOH      3350            0.0000000000
     50612      4042  MEOH      O1            -36.7990634199       -4.2187534676       -2.1869530423  MEOH      3350            0.0000000000
     50613      4042  MEOH      DO1           -36.8034373897       -4.2190642953       -2.1820802846  MEOH      3350            0.0000000000
     50614      4042  MEOH      HO1           -36.5819528195       -4.8484142775       -2.8921411390  MEOH      3350            0.0000000000
     50615      4042  MEOH      HO2           -36.6118317135       -4.3871407537       -1.2502086742  MEOH      3350            0.0000000000
     50616      4042  MEOH      H1A           -35.2560992503       -3.5639660247       -2.6641833800  MEOH      3350            0.0000000000
     50617      4042  MEOH      H1B           -36.5839262697       -2.6621511991       -3.5794889428  MEOH      3350            0.0000000000
     50618      4042  MEOH      H1C           -35.3648716860       -2.3610171249       -2.2009474672  MEOH      3350            0.0000000000
     50619      4042  MEOH      LP1A          -36.5751285173       -4.4020542552       -1.9900927349  MEOH      3350            0.0000000000
     50620      4042  MEOH      LP1B          -37.1272284930       -4.2372480750       -2.3072262077  MEOH      3350            0.0000000000
     50621      4043  MEOH      C1            -20.0526888344        0.1638636207        1.2059320500  MEOH      3351            0.0000000000
     50622      4043  MEOH      DC1           -20.0757283079        0.1523909209        1.1991860542  MEOH      3351            0.0000000000
     50623      4043  MEOH      O1            -20.5386794232       -0.6683955858        0.1611772327  MEOH      3351            0.0000000000
     50624      4043  MEOH      DO1           -20.5454655089       -0.6752318478        0.1477132617  MEOH      3351            0.0000000000
     50625      4043  MEOH      HO1           -20.0136923062       -0.4283014923       -0.6183375872  MEOH      3351            0.0000000000
     50626      4043  MEOH      HO2           -20.4881612801       -1.5754087577        0.5012875430  MEOH      3351            0.0000000000
     50627      4043  MEOH      H1A           -20.5670863803       -0.0763724250        2.1609204307  MEOH      3351            0.0000000000
     50628      4043  MEOH      H1B           -20.2172202994        1.2303034030        0.9414389698  MEOH      3351            0.0000000000
     50629      4043  MEOH      H1C           -18.9599750600        0.0161344049        1.3418499899  MEOH      3351            0.0000000000
     50630      4043  MEOH      LP1A          -20.3611102245       -0.9699611654        0.1559445618  MEOH      3351            0.0000000000
     50631      4043  MEOH      LP1B          -20.8056028197       -0.5117711691       -0.0022874194  MEOH      3351            0.0000000000
     50632      4044  MEOH      C1             30.2960190180      -15.9431033497       13.9282507519  MEOH      3352            0.0000000000
     50633      4044  MEOH      DC1            30.3018164682      -15.9390187677       13.9195086456  MEOH      3352            0.0000000000
     50634      4044  MEOH      O1             29.0575788908      -15.5661114427       13.3320447312  MEOH      3352            0.0000000000
     50635      4044  MEOH      DO1            29.0546793581      -15.5641887027       13.3250732235  MEOH      3352            0.0000000000
     50636      4044  MEOH      HO1            28.3761622076      -15.7917523810       13.9844690346  MEOH      3352            0.0000000000
     50637      4044  MEOH      HO2            29.1788009932      -14.6484313751       13.0420990546  MEOH      3352            0.0000000000
     50638      4044  MEOH      H1A            31.1178104133      -15.8546353414       13.1858537459  MEOH      3352            0.0000000000
     50639      4044  MEOH      H1B            30.2234009386      -16.9898037213       14.2935806668  MEOH      3352            0.0000000000
     50640      4044  MEOH      H1C            30.5227044340      -15.2924839153       14.7998177747  MEOH      3352            0.0000000000
     50641      4044  MEOH      LP1A           28.9838693257      -15.2328887558       13.4096948498  MEOH      3352            0.0000000000
     50642      4044  MEOH      LP1B           28.9288538088      -15.8323920119       13.1448963630  MEOH      3352            0.0000000000
     50643      4045  MEOH      C1            -35.0988321498       26.4446990963       33.8504885950  MEOH      3353            0.0000000000
     50644      4045  MEOH      DC1           -35.0927147130       26.4529480703       33.8420906564  MEOH      3353            0.0000000000
     50645      4045  MEOH      O1            -35.2082436659       25.1314425837       34.3985488710  MEOH      3353            0.0000000000
     50646      4045  MEOH      DO1           -35.1976490014       25.1367540445       34.3843438485  MEOH      3353            0.0000000000
     50647      4045  MEOH      HO1           -35.8780258985       24.6314929662       33.9062662876  MEOH      3353            0.0000000000
     50648      4045  MEOH      HO2           -34.3041002858       24.8039091859       34.5256182283  MEOH      3353            0.0000000000
     50649      4045  MEOH      H1A           -34.5943421024       27.0978167058       34.5942951431  MEOH      3353            0.0000000000
     50650      4045  MEOH      H1B           -36.1011471199       26.8711795659       33.6318562326  MEOH      3353            0.0000000000
     50651      4045  MEOH      H1C           -34.5075353670       26.4336430885       32.9099744370  MEOH      3353            0.0000000000
     50652      4045  MEOH      LP1A          -34.9815522565       24.9165590799       34.2406372352  MEOH      3353            0.0000000000
     50653      4045  MEOH      LP1B          -35.4451941844       25.1285823694       34.6561265699  MEOH      3353            0.0000000000
     50654      4046  MEOH      C1             14.0392072815       31.7197925941       30.0555647703  MEOH      3354            0.0000000000
     50655      4046  MEOH      DC1            14.0325949155       31.7187194795       30.0591890785  MEOH      3354            0.0000000000
     50656      4046  MEOH      O1             14.8290198279       30.7880869086       29.3124518630  MEOH      3354            0.0000000000
     50657      4046  MEOH      DO1            14.8237687047       30.7872537677       29.3117731966  MEOH      3354            0.0000000000
     50658      4046  MEOH      HO1            14.2752927414       30.3977526880       28.6182433137  MEOH      3354            0.0000000000
     50659      4046  MEOH      HO2            15.6543504771       31.2485413190       29.0940232554  MEOH      3354            0.0000000000
     50660      4046  MEOH      H1A            14.6378124225       32.1182918979       30.9024361836  MEOH      3354            0.0000000000
     50661      4046  MEOH      H1B            13.1358330426       31.2140448801       30.4586221290  MEOH      3354            0.0000000000
     50662      4046  MEOH      H1C            13.7387967149       32.5658704067       29.4011743455  MEOH      3354            0.0000000000
     50663      4046  MEOH      LP1A           14.9889202252       30.9513705915       29.0473664016  MEOH      3354            0.0000000000
     50664      4046  MEOH      LP1B           14.8104256040       30.4711412767       29.4597601155  MEOH      3354            0.0000000000
     50665      4047  MEOH      C1             20.6508582611      -28.5588545198       13.3641747203  MEOH      3355            0.0000000000
     50666      4047  MEOH      DC1            20.6420137754      -28.5509067563       13.3642763932  MEOH      3355            0.0000000000
     50667      4047  MEOH      O1             21.1770562220      -27.7656272934       12.2921760997  MEOH      3355            0.0000000000
     50668      4047  MEOH      DO1            21.1686273008      -27.7589530628       12.2898044045  MEOH      3355            0.0000000000
     50669      4047  MEOH      HO1            20.4356921302      -27.3628503390       11.8135844067  MEOH      3355            0.0000000000
     50670      4047  MEOH      HO2            21.8882382349      -27.2258049890       12.6712697882  MEOH      3355            0.0000000000
     50671      4047  MEOH      H1A            21.4695571572      -29.1661871802       13.8059893398  MEOH      3355            0.0000000000
     50672      4047  MEOH      H1B            19.8707078538      -29.2578638331       12.9939419260  MEOH      3355            0.0000000000
     50673      4047  MEOH      H1C            20.2139538503      -27.9116548569       14.1544709523  MEOH      3355            0.0000000000
     50674      4047  MEOH      LP1A           21.2393346814      -27.4397897247       12.4037613688  MEOH      3355            0.0000000000
     50675      4047  MEOH      LP1B           21.2133215072      -27.9618928790       12.0046614931  MEOH      3355            0.0000000000
     50676      4048  MEOH      C1             -0.8762547332       10.7992237625       25.8980281438  MEOH      3356            0.0000000000
     50677      4048  MEOH      DC1            -0.8883805619       10.8244160958       25.9002412053  MEOH      3356            0.0000000000
     50678      4048  MEOH      O1             -0.3479618274       11.2737943006       27.1406387617  MEOH      3356            0.0000000000
     50679      4048  MEOH      DO1            -0.3618335923       11.3003146706       27.1486372352  MEOH      3356            0.0000000000
     50680      4048  MEOH      HO1             0.4661188552       11.7602222212       26.9367747832  MEOH      3356            0.0000000000
     50681      4048  MEOH      HO2            -1.0875603472       11.6230685383       27.6620805479  MEOH      3356            0.0000000000
     50682      4048  MEOH      H1A            -1.6042891780        9.9802667124       26.0813208004  MEOH      3356            0.0000000000
     50683      4048  MEOH      H1B            -0.0574651936       10.3824739847       25.2733487761  MEOH      3356            0.0000000000
     50684      4048  MEOH      H1C            -1.3610296027       11.6288987776       25.3403959202  MEOH      3356            0.0000000000
     50685      4048  MEOH      LP1A           -0.4819115059       11.5884082277       27.2153084378  MEOH      3356            0.0000000000
     50686      4048  MEOH      LP1B           -0.1344168169       11.0337132341       27.2794177586  MEOH      3356            0.0000000000
     50687      4049  MEOH      C1              3.6545821802        0.6951883217       33.4391129754  MEOH      3357            0.0000000000
     50688      4049  MEOH      DC1             3.6580190080        0.6744630501       33.4141264549  MEOH      3357            0.0000000000
     50689      4049  MEOH      O1              3.9220337246        2.0228397121       33.0018072324  MEOH      3357            0.0000000000
     50690      4049  MEOH      DO1             3.9276151228        2.0076630009       32.9746085263  MEOH      3357            0.0000000000
     50691      4049  MEOH      HO1             4.5094100155        2.4247726435       33.6608512462  MEOH      3357            0.0000000000
     50692      4049  MEOH      HO2             4.1495320626        1.9832011837       32.0596961491  MEOH      3357            0.0000000000
     50693      4049  MEOH      H1A             2.7717852415        0.2979839454       32.8939347950  MEOH      3357            0.0000000000
     50694      4049  MEOH      H1B             3.4236290223        0.6989449328       34.5258362744  MEOH      3357            0.0000000000
     50695      4049  MEOH      H1C             4.5468118833        0.0552056303       33.2697928280  MEOH      3357            0.0000000000
     50696      4049  MEOH      LP1A            4.2028927365        2.0257966427       32.7929784222  MEOH      3357            0.0000000000
     50697      4049  MEOH      LP1B            3.6795571102        2.2415190362       33.1278407386  MEOH      3357            0.0000000000
     50698      4050  MEOH      C1            -23.9379466806       24.7022798108      -29.1813735937  MEOH      3358            0.0000000000
     50699      4050  MEOH      DC1           -23.9433797580       24.7009625425      -29.1881934432  MEOH      3358            0.0000000000
     50700      4050  MEOH      O1            -25.1041196721       24.0858495227      -29.7246109812  MEOH      3358            0.0000000000
     50701      4050  MEOH      DO1           -25.1060396845       24.0835228522      -29.7376609137  MEOH      3358            0.0000000000
     50702      4050  MEOH      HO1           -25.7526671743       24.0411884476      -29.0046863145  MEOH      3358            0.0000000000
     50703      4050  MEOH      HO2           -25.3049930950       24.5635951179      -30.5445555012  MEOH      3358            0.0000000000
     50704      4050  MEOH      H1A           -23.1005214837       24.6464266674      -29.9093299569  MEOH      3358            0.0000000000
     50705      4050  MEOH      H1B           -23.6266407286       24.1722298012      -28.2559241939  MEOH      3358            0.0000000000
     50706      4050  MEOH      H1C           -24.1440228077       25.7698423901      -28.9529796988  MEOH      3358            0.0000000000
     50707      4050  MEOH      LP1A          -25.3153630263       24.3290547084      -29.8614593752  MEOH      3358            0.0000000000
     50708      4050  MEOH      LP1B          -25.0833648297       23.7382735188      -29.6891122761  MEOH      3358            0.0000000000
     50709      4051  MEOH      C1            -16.0704297279       -3.3291810634      -30.6232720974  MEOH      3359            0.0000000000
     50710      4051  MEOH      DC1           -16.0642322710       -3.3341590152      -30.6175367794  MEOH      3359            0.0000000000
     50711      4051  MEOH      O1            -17.1703516581       -2.5620315446      -30.1345921150  MEOH      3359            0.0000000000
     50712      4051  MEOH      DO1           -17.1541243936       -2.5666538134      -30.1216393955  MEOH      3359            0.0000000000
     50713      4051  MEOH      HO1           -17.4285583718       -1.9292008869      -30.8228904890  MEOH      3359            0.0000000000
     50714      4051  MEOH      HO2           -17.8216831421       -3.2040176535      -29.8112948287  MEOH      3359            0.0000000000
     50715      4051  MEOH      H1A           -15.7197933528       -4.0220978389      -29.8287650332  MEOH      3359            0.0000000000
     50716      4051  MEOH      H1B           -15.2348168181       -2.6578781422      -30.9155467164  MEOH      3359            0.0000000000
     50717      4051  MEOH      H1C           -16.3908210796       -3.9269064814      -31.5032690905  MEOH      3359            0.0000000000
     50718      4051  MEOH      LP1A          -17.4718331356       -2.7214968532      -30.2132033998  MEOH      3359            0.0000000000
     50719      4051  MEOH      LP1B          -17.0530681404       -2.2797372356      -29.9641383102  MEOH      3359            0.0000000000
     50720      4052  MEOH      C1            -22.7666580170      -18.7419100054      -36.8303662478  MEOH      3360            0.0000000000
     50721      4052  MEOH      DC1           -22.7744780456      -18.7326361682      -36.8275846024  MEOH      3360            0.0000000000
     50722      4052  MEOH      O1            -21.4050240688      -18.3724103286      -36.5959610866  MEOH      3360            0.0000000000
     50723      4052  MEOH      DO1           -21.4253244274      -18.3518359525      -36.5808605118  MEOH      3360            0.0000000000
     50724      4052  MEOH      HO1           -20.9319243798      -19.1404332739      -36.2392855473  MEOH      3360            0.0000000000
     50725      4052  MEOH      HO2           -21.0879182357      -18.0220853377      -37.4430834457  MEOH      3360            0.0000000000
     50726      4052  MEOH      H1A           -23.2653989786      -17.9486500466      -37.4272892674  MEOH      3360            0.0000000000
     50727      4052  MEOH      H1B           -23.3047601080      -18.8745947000      -35.8674737764  MEOH      3360            0.0000000000
     50728      4052  MEOH      H1C           -22.8076854291      -19.6900864431      -37.4079467147  MEOH      3360            0.0000000000
     50729      4052  MEOH      LP1A          -21.2141501533      -18.4299502904      -36.8836350360  MEOH      3360            0.0000000000
     50730      4052  MEOH      LP1B          -21.3701824045      -18.2424211278      -36.2728684279  MEOH      3360            0.0000000000
     50731      4053  MEOH      C1            -16.7777050589       26.9521648642      -34.7525415140  MEOH      3361            0.0000000000
     50732      4053  MEOH      DC1           -16.7691485445       26.9434150344      -34.7498446770  MEOH      3361            0.0000000000
     50733      4053  MEOH      O1            -15.5436631341       26.5672203824      -34.1504009034  MEOH      3361            0.0000000000
     50734      4053  MEOH      DO1           -15.5374107254       26.5559893111      -34.1536541155  MEOH      3361            0.0000000000
     50735      4053  MEOH      HO1           -15.3224901775       25.6702436682      -34.4460616858  MEOH      3361            0.0000000000
     50736      4053  MEOH      HO2           -14.9217945140       27.2975490270      -34.2946211864  MEOH      3361            0.0000000000
     50737      4053  MEOH      H1A           -17.1270222793       27.9004502117      -34.2909644551  MEOH      3361            0.0000000000
     50738      4053  MEOH      H1B           -17.5413130920       26.1605686506      -34.5957001704  MEOH      3361            0.0000000000
     50739      4053  MEOH      H1C           -16.6420258340       27.1294552215      -35.8408798241  MEOH      3361            0.0000000000
     50740      4053  MEOH      LP1A          -15.2758070250       26.6648754039      -34.3534196257  MEOH      3361            0.0000000000
     50741      4053  MEOH      LP1B          -15.6037668761       26.4150960462      -33.8409728398  MEOH      3361            0.0000000000
     50742      4054  MEOH      C1              7.4106689861       31.7876886345      -26.3274096086  MEOH      3362            0.0000000000
     50743      4054  MEOH      DC1             7.4098966470       31.7750374855      -26.3398870100  MEOH      3362            0.0000000000
     50744      4054  MEOH      O1              7.0478785018       30.8991235556      -27.3889038005  MEOH      3362            0.0000000000
     50745      4054  MEOH      DO1             7.0606403284       30.8876254675      -27.3965514070  MEOH      3362            0.0000000000
     50746      4054  MEOH      HO1             6.1561490638       30.5777098399      -27.1829624648  MEOH      3362            0.0000000000
     50747      4054  MEOH      HO2             7.1980051297       31.3958307933      -28.2084426438  MEOH      3362            0.0000000000
     50748      4054  MEOH      H1A             8.4488719229       32.1533859355      -26.4781449613  MEOH      3362            0.0000000000
     50749      4054  MEOH      H1B             7.3511492322       31.2693478839      -25.3465420003  MEOH      3362            0.0000000000
     50750      4054  MEOH      H1C             6.7277851822       32.6637905182      -26.3065241881  MEOH      3362            0.0000000000
     50751      4054  MEOH      LP1A            6.8932038008       31.0778518184      -27.6470354431  MEOH      3362            0.0000000000
     50752      4054  MEOH      LP1B            7.1520035242       30.5736142086      -27.3133945647  MEOH      3362            0.0000000000
     50753      4055  MEOH      C1             13.8094230611       22.0464453719       15.8586316034  MEOH      3363            0.0000000000
     50754      4055  MEOH      DC1            13.8102735357       22.0476781725       15.8613957191  MEOH      3363            0.0000000000
     50755      4055  MEOH      O1             14.1437398281       22.5920417986       17.1358939094  MEOH      3363            0.0000000000
     50756      4055  MEOH      DO1            14.1414400044       22.5900992826       17.1394187996  MEOH      3363            0.0000000000
     50757      4055  MEOH      HO1            13.8867575200       21.9453454493       17.8116482472  MEOH      3363            0.0000000000
     50758      4055  MEOH      HO2            15.0632041462       22.8922114155       17.0625210945  MEOH      3363            0.0000000000
     50759      4055  MEOH      H1A            13.9437194084       22.8180527548       15.0706547394  MEOH      3363            0.0000000000
     50760      4055  MEOH      H1B            12.7567400645       21.6913119090       15.8509029403  MEOH      3363            0.0000000000
     50761      4055  MEOH      H1C            14.4897749444       21.1995488368       15.6258042527  MEOH      3363            0.0000000000
     50762      4055  MEOH      LP1A           14.4716011081       22.5043438881       17.2214278651  MEOH      3363            0.0000000000
     50763      4055  MEOH      LP1B           13.8759654343       22.7806259326       17.2593155380  MEOH      3363            0.0000000000
     50764      4056  MEOH      C1             -5.0857663604      -27.2883070687       -8.6405367012  MEOH      3364            0.0000000000
     50765      4056  MEOH      DC1            -5.0854753975      -27.2883091788       -8.6303588671  MEOH      3364            0.0000000000
     50766      4056  MEOH      O1             -5.0800589863      -26.3463723609       -9.7146808875  MEOH      3364            0.0000000000
     50767      4056  MEOH      DO1            -5.0851165852      -26.3519931013       -9.7065660538  MEOH      3364            0.0000000000
     50768      4056  MEOH      HO1            -4.1929763922      -25.9602524817       -9.7846516683  MEOH      3364            0.0000000000
     50769      4056  MEOH      HO2            -5.4723378374      -26.8078703130      -10.4723331454  MEOH      3364            0.0000000000
     50770      4056  MEOH      H1A            -6.1198196463      -27.6665716304       -8.4923114516  MEOH      3364            0.0000000000
     50771      4056  MEOH      H1B            -4.7425654605      -26.8014663509       -7.7027092876  MEOH      3364            0.0000000000
     50772      4056  MEOH      H1C            -4.4339712180      -28.1564784452       -8.8766776667  MEOH      3364            0.0000000000
     50773      4056  MEOH      LP1A           -4.9977315497      -26.5071651116      -10.0144606141  MEOH      3364            0.0000000000
     50774      4056  MEOH      LP1B           -5.1724970877      -26.0299947476       -9.5969506738  MEOH      3364            0.0000000000
     50775      4057  MEOH      C1             -9.7011019852       28.6643120422       34.0923267119  MEOH      3365            0.0000000000
     50776      4057  MEOH      DC1            -9.7053668574       28.6554292981       34.0822736895  MEOH      3365            0.0000000000
     50777      4057  MEOH      O1            -10.4786083214       27.4711670935       34.1141130081  MEOH      3365            0.0000000000
     50778      4057  MEOH      DO1           -10.4816309280       27.4672857590       34.1014802545  MEOH      3365            0.0000000000
     50779      4057  MEOH      HO1           -10.2639749508       27.0253047912       34.9484027205  MEOH      3365            0.0000000000
     50780      4057  MEOH      HO2           -11.3881609633       27.7454348314       33.9181762847  MEOH      3365            0.0000000000
     50781      4057  MEOH      H1A            -9.8010394627       29.1644861157       33.1053315764  MEOH      3365            0.0000000000
     50782      4057  MEOH      H1B            -8.6302966642       28.4206681880       34.2606556664  MEOH      3365            0.0000000000
     50783      4057  MEOH      H1C           -10.0459941982       29.3648013035       34.8826969781  MEOH      3365            0.0000000000
     50784      4057  MEOH      LP1A          -10.7903910418       27.5341083262       34.2601607280  MEOH      3365            0.0000000000
     50785      4057  MEOH      LP1B          -10.3019735555       27.2103803657       33.9615009442  MEOH      3365            0.0000000000
     50786      4058  MEOH      C1              3.1449560481      -30.5759633503      -36.2755221825  MEOH      3366            0.0000000000
     50787      4058  MEOH      DC1             3.1364891059      -30.5917165822      -36.2801682501  MEOH      3366            0.0000000000
     50788      4058  MEOH      O1              1.8876115066      -30.5632845383      -36.9222692665  MEOH      3366            0.0000000000
     50789      4058  MEOH      DO1             1.8803336981      -30.5746293321      -36.9194471964  MEOH      3366            0.0000000000
     50790      4058  MEOH      HO1             1.5885439872      -31.4813044212      -37.0155329433  MEOH      3366            0.0000000000
     50791      4058  MEOH      HO2             1.3411843420      -29.9042493826      -36.4662100401  MEOH      3366            0.0000000000
     50792      4058  MEOH      H1A             3.5863981784      -29.5571515072      -36.3138924128  MEOH      3366            0.0000000000
     50793      4058  MEOH      H1B             3.8392997471      -31.2903709722      -36.7672838904  MEOH      3366            0.0000000000
     50794      4058  MEOH      H1C             2.9820582867      -30.8701958692      -35.2166489389  MEOH      3366            0.0000000000
     50795      4058  MEOH      LP1A            1.6313583670      -30.5372783732      -36.6852924579  MEOH      3366            0.0000000000
     50796      4058  MEOH      LP1B            1.9313709613      -30.5756840698      -37.2693014866  MEOH      3366            0.0000000000
     50797      4059  MEOH      C1             20.6190540824       16.5430465611      -24.9824825996  MEOH      3367            0.0000000000
     50798      4059  MEOH      DC1            20.6161385599       16.5414313490      -24.9870321464  MEOH      3367            0.0000000000
     50799      4059  MEOH      O1             20.3880291340       16.4654617699      -26.3921267067  MEOH      3367            0.0000000000
     50800      4059  MEOH      DO1            20.3861153024       16.4627985211      -26.3964072760  MEOH      3367            0.0000000000
     50801      4059  MEOH      HO1            20.6250408297       17.3291206828      -26.7647105739  MEOH      3367            0.0000000000
     50802      4059  MEOH      HO2            20.8455646244       15.6632171981      -26.6887155180  MEOH      3367            0.0000000000
     50803      4059  MEOH      H1A            20.3135634544       15.5918644196      -24.4964280652  MEOH      3367            0.0000000000
     50804      4059  MEOH      H1B            20.0279461813       17.3759336893      -24.5452052494  MEOH      3367            0.0000000000
     50805      4059  MEOH      H1C            21.6983233567       16.7155484316      -24.7831287953  MEOH      3367            0.0000000000
     50806      4059  MEOH      LP1A           20.6756470357       16.3494640426      -26.5543625533  MEOH      3367            0.0000000000
     50807      4059  MEOH      LP1B           20.0582524529       16.5576030360      -26.4646341384  MEOH      3367            0.0000000000
     50808      4060  MEOH      C1            -18.7043847342       22.4378966852      -34.3807316431  MEOH      3368            0.0000000000
     50809      4060  MEOH      DC1           -18.6909600988       22.4390437155      -34.3792042921  MEOH      3368            0.0000000000
     50810      4060  MEOH      O1            -18.9182614598       23.6714002740      -35.0704906721  MEOH      3368            0.0000000000
     50811      4060  MEOH      DO1           -18.8932592146       23.6743413962      -35.0669041354  MEOH      3368            0.0000000000
     50812      4060  MEOH      HO1           -19.3974930736       24.2727739690      -34.4792320649  MEOH      3368            0.0000000000
     50813      4060  MEOH      HO2           -18.0900693656       23.9053556101      -35.5179979411  MEOH      3368            0.0000000000
     50814      4060  MEOH      H1A           -18.4761297733       21.6383904820      -35.1176241074  MEOH      3368            0.0000000000
     50815      4060  MEOH      H1B           -19.6191165541       22.1477781801      -33.8208942092  MEOH      3368            0.0000000000
     50816      4060  MEOH      H1C           -17.8532064973       22.5384867792      -33.6738382688  MEOH      3368            0.0000000000
     50817      4060  MEOH      LP1A          -18.6475719614       23.8867989467      -35.0172872207  MEOH      3368            0.0000000000
     50818      4060  MEOH      LP1B          -19.2193692193       23.6583990125      -35.2484375305  MEOH      3368            0.0000000000
     50819      4061  MEOH      C1             16.2485147682      -15.5297407392        2.1971518718  MEOH      3369            0.0000000000
     50820      4061  MEOH      DC1            16.2394477272      -15.5169153803        2.1892144522  MEOH      3369            0.0000000000
     50821      4061  MEOH      O1             16.8760748711      -16.7782531809        1.9585738052  MEOH      3369            0.0000000000
     50822      4061  MEOH      DO1            16.8650023609      -16.7723852226        1.9605484669  MEOH      3369            0.0000000000
     50823      4061  MEOH      HO1            16.7446476998      -17.0251217923        1.0297666200  MEOH      3369            0.0000000000
     50824      4061  MEOH      HO2            17.7755218192      -16.6909767477        2.3111046731  MEOH      3369            0.0000000000
     50825      4061  MEOH      H1A            16.3036157071      -15.2988258360        3.2824920011  MEOH      3369            0.0000000000
     50826      4061  MEOH      H1B            15.1803641634      -15.5750554434        1.8949567964  MEOH      3369            0.0000000000
     50827      4061  MEOH      H1C            16.7796276743      -14.7318036537        1.6354255251  MEOH      3369            0.0000000000
     50828      4061  MEOH      LP1A           17.2091467589      -16.7285332555        1.8632268250  MEOH      3369            0.0000000000
     50829      4061  MEOH      LP1B           16.6523844832      -17.0392221308        2.0245875731  MEOH      3369            0.0000000000
     50830      4062  MEOH      C1              3.4825404422      -35.7995183056       13.3103275587  MEOH      3370            0.0000000000
     50831      4062  MEOH      DC1             3.4862168695      -35.7892961206       13.3214653536  MEOH      3370            0.0000000000
     50832      4062  MEOH      O1              3.1292257979      -37.1832103484       13.2359494793  MEOH      3370            0.0000000000
     50833      4062  MEOH      DO1             3.1346232315      -37.1747826968       13.2420415935  MEOH      3370            0.0000000000
     50834      4062  MEOH      HO1             2.9846082499      -37.5243445149       14.1323942607  MEOH      3370            0.0000000000
     50835      4062  MEOH      HO2             2.4076758298      -37.2334465821       12.5896198697  MEOH      3370            0.0000000000
     50836      4062  MEOH      H1A             3.6842579519      -35.4228927318       12.2847622388  MEOH      3370            0.0000000000
     50837      4062  MEOH      H1B             4.3995543611      -35.6683096876       13.9236714849  MEOH      3370            0.0000000000
     50838      4062  MEOH      H1C             2.6425842269      -35.2156939757       13.7438523079  MEOH      3370            0.0000000000
     50839      4062  MEOH      LP1A            2.7822900940      -37.2166222906       13.2040236356  MEOH      3370            0.0000000000
     50840      4062  MEOH      LP1B            3.4178337894      -37.3810510444       13.2439798111  MEOH      3370            0.0000000000
     50841      4063  MEOH      C1             10.4581818725      -27.6735977167       30.9244506352  MEOH      3371            0.0000000000
     50842      4063  MEOH      DC1            10.4584586708      -27.6817822055       30.9233131783  MEOH      3371            0.0000000000
     50843      4063  MEOH      O1              9.7098821099      -27.1756191174       29.8135165826  MEOH      3371            0.0000000000
     50844      4063  MEOH      DO1             9.7123795690      -27.1856109264       29.8058298234  MEOH      3371            0.0000000000
     50845      4063  MEOH      HO1             8.8266615518      -27.5735316083       29.8633873691  MEOH      3371            0.0000000000
     50846      4063  MEOH      HO2             9.7882624804      -26.2104074285       29.8693996188  MEOH      3371            0.0000000000
     50847      4063  MEOH      H1A            11.4639679734      -27.2017122504       30.9307296813  MEOH      3371            0.0000000000
     50848      4063  MEOH      H1B            10.5733756433      -28.7758037505       30.8457534029  MEOH      3371            0.0000000000
     50849      4063  MEOH      H1C             9.9422498201      -27.4181607621       31.8746543400  MEOH      3371            0.0000000000
     50850      4063  MEOH      LP1A            9.5481908896      -26.8780366464       29.9018377138  MEOH      3371            0.0000000000
     50851      4063  MEOH      LP1B            9.7552931514      -27.3836150580       29.5357117483  MEOH      3371            0.0000000000
     50852      4064  MEOH      C1            -24.2985004790      -32.1079359403       21.1620298987  MEOH      3372            0.0000000000
     50853      4064  MEOH      DC1           -24.3005159304      -32.1236294523       21.1654577500  MEOH      3372            0.0000000000
     50854      4064  MEOH      O1            -24.0551590196      -32.6681780999       22.4545290719  MEOH      3372            0.0000000000
     50855      4064  MEOH      DO1           -24.0530956516      -32.6920894546       22.4546044492  MEOH      3372            0.0000000000
     50856      4064  MEOH      HO1           -23.0906173735      -32.6924435080       22.5543819780  MEOH      3372            0.0000000000
     50857      4064  MEOH      HO2           -24.5633399706      -32.1135476008       23.0669318246  MEOH      3372            0.0000000000
     50858      4064  MEOH      H1A           -25.3899019828      -31.9608473703       21.0153032426  MEOH      3372            0.0000000000
     50859      4064  MEOH      H1B           -23.9033295776      -32.7838855208       20.3738337786  MEOH      3372            0.0000000000
     50860      4064  MEOH      H1C           -23.7980120997      -31.1196759434       21.0773271199  MEOH      3372            0.0000000000
     50861      4064  MEOH      LP1A          -24.0464948875      -32.4143293592       22.6953313759  MEOH      3372            0.0000000000
     50862      4064  MEOH      LP1B          -24.0343801882      -33.0168267744       22.4318940997  MEOH      3372            0.0000000000
     50863      4065  MEOH      C1            -12.3796718402       31.5874496742      -32.8336620519  MEOH      3373            0.0000000000
     50864      4065  MEOH      DC1           -12.3835095816       31.5861078967      -32.8260487088  MEOH      3373            0.0000000000
     50865      4065  MEOH      O1            -11.1274578271       31.4433049724      -33.5071131319  MEOH      3373            0.0000000000
     50866      4065  MEOH      DO1           -11.1336849654       31.4349077130      -33.4913413148  MEOH      3373            0.0000000000
     50867      4065  MEOH      HO1           -10.4245889879       31.8822074662      -33.0028909627  MEOH      3373            0.0000000000
     50868      4065  MEOH      HO2           -11.0558843507       30.5143723176      -33.7770415691  MEOH      3373            0.0000000000
     50869      4065  MEOH      H1A           -13.1958880519       31.2679514330      -33.5163281279  MEOH      3373            0.0000000000
     50870      4065  MEOH      H1B           -12.5594555219       32.6482054569      -32.5565411438  MEOH      3373            0.0000000000
     50871      4065  MEOH      H1C           -12.4020191578       30.9549830196      -31.9205314324  MEOH      3373            0.0000000000
     50872      4065  MEOH      LP1A          -10.9688340625       31.1491175323      -33.4032273708  MEOH      3373            0.0000000000
     50873      4065  MEOH      LP1B          -11.0814733752       31.7073869494      -33.7321601040  MEOH      3373            0.0000000000
     50874      4066  MEOH      C1            -15.3368158013       -9.5661044607      -19.8727947334  MEOH      3374            0.0000000000
     50875      4066  MEOH      DC1           -15.3308232430       -9.5792871980      -19.8767757598  MEOH      3374            0.0000000000
     50876      4066  MEOH      O1            -14.8028378776       -8.5050459801      -20.6673538379  MEOH      3374            0.0000000000
     50877      4066  MEOH      DO1           -14.7997380397       -8.5160517784      -20.6780032369  MEOH      3374            0.0000000000
     50878      4066  MEOH      HO1           -13.8736386033       -8.7061029587      -20.8598760440  MEOH      3374            0.0000000000
     50879      4066  MEOH      HO2           -15.4481122805       -8.3287873414      -21.3698165333  MEOH      3374            0.0000000000
     50880      4066  MEOH      H1A           -16.3200114201       -9.2554259270      -19.4591206775  MEOH      3374            0.0000000000
     50881      4066  MEOH      H1B           -14.6521897162       -9.7881268963      -19.0264412837  MEOH      3374            0.0000000000
     50882      4066  MEOH      H1C           -15.4743836889      -10.4743446728      -20.4976913609  MEOH      3374            0.0000000000
     50883      4066  MEOH      LP1A          -14.8541598920       -8.5723098540      -21.0069736579  MEOH      3374            0.0000000000
     50884      4066  MEOH      LP1B          -14.6722229831       -8.2546947164      -20.4605592681  MEOH      3374            0.0000000000
     50885      4067  MEOH      C1            -24.3686382675       35.7923284637      -30.8767145841  MEOH      3375            0.0000000000
     50886      4067  MEOH      DC1           -24.3679936842       35.7832537727      -30.8738155981  MEOH      3375            0.0000000000
     50887      4067  MEOH      O1            -23.9994623278       37.1733006033      -30.8451345054  MEOH      3375            0.0000000000
     50888      4067  MEOH      DO1           -23.9833618147       37.1709725193      -30.8343116672  MEOH      3375            0.0000000000
     50889      4067  MEOH      HO1           -24.1180101079       37.4809211571      -29.9328757599  MEOH      3375            0.0000000000
     50890      4067  MEOH      HO2           -23.1491820480       37.2433688261      -31.3066687843  MEOH      3375            0.0000000000
     50891      4067  MEOH      H1A           -24.4079381555       35.4376527744      -31.9288465509  MEOH      3375            0.0000000000
     50892      4067  MEOH      H1B           -25.3739879749       35.6619011684      -30.4222020024  MEOH      3375            0.0000000000
     50893      4067  MEOH      H1C           -23.6224039700       35.1889821980      -30.3168675898  MEOH      3375            0.0000000000
     50894      4067  MEOH      LP1A          -23.6571053573       37.2042132558      -30.7792853394  MEOH      3375            0.0000000000
     50895      4067  MEOH      LP1B          -24.2776174848       37.3732424576      -30.9169186507  MEOH      3375            0.0000000000
     50896      4068  MEOH      C1             35.3316008194       -6.5987153215       29.3437326468  MEOH      3376            0.0000000000
     50897      4068  MEOH      DC1            35.3321208951       -6.6053543052       29.3408634320  MEOH      3376            0.0000000000
     50898      4068  MEOH      O1             36.2910243343       -6.9281332864       28.3365132915  MEOH      3376            0.0000000000
     50899      4068  MEOH      DO1            36.2886672020       -6.9309473136       28.3331988282  MEOH      3376            0.0000000000
     50900      4068  MEOH      HO1            37.0169643441       -6.2891039152       28.4110288384  MEOH      3376            0.0000000000
     50901      4068  MEOH      HO2            36.4726232995       -7.8752826345       28.4405802332  MEOH      3376            0.0000000000
     50902      4068  MEOH      H1A            34.4507682228       -7.2692031047       29.2493871562  MEOH      3376            0.0000000000
     50903      4068  MEOH      H1B            34.9942031487       -5.5468775889       29.2249000047  MEOH      3376            0.0000000000
     50904      4068  MEOH      H1C            35.7779733561       -6.7318002868       30.3523757703  MEOH      3376            0.0000000000
     50905      4068  MEOH      LP1A           36.5217897009       -7.1593976013       28.4620687065  MEOH      3376            0.0000000000
     50906      4068  MEOH      LP1B           36.2143381229       -6.7607792588       28.0388358580  MEOH      3376            0.0000000000
     50907      4069  MEOH      C1            -36.4196902021       22.8460839118        8.0080130516  MEOH      3377            0.0000000000
     50908      4069  MEOH      DC1           -36.4179813676       22.8610921166        8.0097029174  MEOH      3377            0.0000000000
     50909      4069  MEOH      O1            -35.1046255606       23.3885540760        7.9085772927  MEOH      3377            0.0000000000
     50910      4069  MEOH      DO1           -35.1014571384       23.3934042727        7.9117128064  MEOH      3377            0.0000000000
     50911      4069  MEOH      HO1           -34.8272512400       23.3093506755        6.9824615827  MEOH      3377            0.0000000000
     50912      4069  MEOH      HO2           -35.1243963206       24.2506227597        8.3528145060  MEOH      3377            0.0000000000
     50913      4069  MEOH      H1A           -36.7213220501       22.7992534748        9.0762574709  MEOH      3377            0.0000000000
     50914      4069  MEOH      H1B           -36.4391971222       21.8205772808        7.5810743794  MEOH      3377            0.0000000000
     50915      4069  MEOH      H1C           -37.1365605495       23.4865916978        7.4510860519  MEOH      3377            0.0000000000
     50916      4069  MEOH      LP1A          -35.1214245499       23.7318317718        7.8424091922  MEOH      3377            0.0000000000
     50917      4069  MEOH      LP1B          -34.8671625590       23.1387028236        7.9692870492  MEOH      3377            0.0000000000
     50918      4070  MEOH      C1             -9.8831327879        0.5397697464       18.0848943763  MEOH      3378            0.0000000000
     50919      4070  MEOH      DC1            -9.8560745144        0.5476227612       18.0812354296  MEOH      3378            0.0000000000
     50920      4070  MEOH      O1             -8.6016414763        0.5859601747       17.4493991207  MEOH      3378            0.0000000000
     50921      4070  MEOH      DO1            -8.5743607946        0.5865132449       17.4427767063  MEOH      3378            0.0000000000
     50922      4070  MEOH      HO1            -8.5863560852       -0.2130064050       16.8995639064  MEOH      3378            0.0000000000
     50923      4070  MEOH      HO2            -8.5533444533        1.4597475389       17.0309937675  MEOH      3378            0.0000000000
     50924      4070  MEOH      H1A           -10.0110513116        1.4188796476       18.7520702406  MEOH      3378            0.0000000000
     50925      4070  MEOH      H1B            -9.9803161924       -0.3846472055       18.6934415682  MEOH      3378            0.0000000000
     50926      4070  MEOH      H1C           -10.6897196138        0.5462268436       17.3208937216  MEOH      3378            0.0000000000
     50927      4070  MEOH      LP1A           -8.6233459913        0.7642681724       17.1490074231  MEOH      3378            0.0000000000
     50928      4070  MEOH      LP1B           -8.3632135172        0.4252090569       17.6489265285  MEOH      3378            0.0000000000
     50929      4071  MEOH      C1             11.9417845679        3.3596843524      -35.0461364339  MEOH      3379            0.0000000000
     50930      4071  MEOH      DC1            11.9476480485        3.3613422640      -35.0394763881  MEOH      3379            0.0000000000
     50931      4071  MEOH      O1             12.8196128465        2.9592814933      -36.0762703419  MEOH      3379            0.0000000000
     50932      4071  MEOH      DO1            12.8303233667        2.9726454764      -36.0706601693  MEOH      3379            0.0000000000
     50933      4071  MEOH      HO1            12.3707019726        2.2239424670      -36.5219782548  MEOH      3379            0.0000000000
     50934      4071  MEOH      HO2            13.0020613954        3.7718376309      -36.5736284135  MEOH      3379            0.0000000000
     50935      4071  MEOH      H1A            12.3671000397        4.2643493913      -34.5613592504  MEOH      3379            0.0000000000
     50936      4071  MEOH      H1B            11.8432012885        2.5349177450      -34.3083272578  MEOH      3379            0.0000000000
     50937      4071  MEOH      H1C            10.9369955720        3.6034940325      -35.4526790709  MEOH      3379            0.0000000000
     50938      4071  MEOH      LP1A           12.7536502862        3.1418979811      -36.3674750105  MEOH      3379            0.0000000000
     50939      4071  MEOH      LP1B           13.0419283601        2.7168786103      -35.9566181177  MEOH      3379            0.0000000000
     50940      4072  MEOH      C1            -11.3378020781        1.4246836985      -19.3571450473  MEOH      3380            0.0000000000
     50941      4072  MEOH      DC1           -11.3339622683        1.4288468559      -19.3742937703  MEOH      3380            0.0000000000
     50942      4072  MEOH      O1            -12.5419195522        1.7202652176      -20.0626045839  MEOH      3380            0.0000000000
     50943      4072  MEOH      DO1           -12.5361105830        1.7237290979      -20.0813090731  MEOH      3380            0.0000000000
     50944      4072  MEOH      HO1           -12.8216880462        0.8913235319      -20.4815142065  MEOH      3380            0.0000000000
     50945      4072  MEOH      HO2           -13.1299239917        2.0885013536      -19.3847012521  MEOH      3380            0.0000000000
     50946      4072  MEOH      H1A           -11.0398783281        2.2981403378      -18.7385693135  MEOH      3380            0.0000000000
     50947      4072  MEOH      H1B           -10.5012738359        1.1709407451      -20.0428242832  MEOH      3380            0.0000000000
     50948      4072  MEOH      H1C           -11.5135228903        0.5431599461      -18.7041832792  MEOH      3380            0.0000000000
     50949      4072  MEOH      LP1A          -12.8180680688        1.6745151084      -19.8524881299  MEOH      3380            0.0000000000
     50950      4072  MEOH      LP1B          -12.4672368996        1.8265360641      -20.3876107509  MEOH      3380            0.0000000000
     50951      4073  MEOH      C1            -31.9274386375      -18.7228832011       33.3151473153  MEOH      3381            0.0000000000
     50952      4073  MEOH      DC1           -31.9417628865      -18.7129141661       33.3258923973  MEOH      3381            0.0000000000
     50953      4073  MEOH      O1            -31.7862934142      -19.9614957232       32.6267133349  MEOH      3381            0.0000000000
     50954      4073  MEOH      DO1           -31.8011064742      -19.9592772163       32.6325108319  MEOH      3381            0.0000000000
     50955      4073  MEOH      HO1           -31.2672330296      -20.5608242689       33.1855349625  MEOH      3381            0.0000000000
     50956      4073  MEOH      HO2           -32.6677812106      -20.1996080707       32.2993270565  MEOH      3381            0.0000000000
     50957      4073  MEOH      H1A           -32.3450728804      -17.9652100829       32.6181293198  MEOH      3381            0.0000000000
     50958      4073  MEOH      H1B           -30.9299405581      -18.3765053619       33.6606049453  MEOH      3381            0.0000000000
     50959      4073  MEOH      H1C           -32.6061997548      -18.8477433625       34.1857874751  MEOH      3381            0.0000000000
     50960      4073  MEOH      LP1A          -32.0542813563      -20.1728149514       32.7043448146  MEOH      3381            0.0000000000
     50961      4073  MEOH      LP1B          -31.5006685937      -19.9542216077       32.4245610428  MEOH      3381            0.0000000000
     50962      4074  MEOH      C1             -9.9452118306       15.7836301194       -0.8961483760  MEOH      3382            0.0000000000
     50963      4074  MEOH      DC1            -9.9468863094       15.7885762407       -0.8993587698  MEOH      3382            0.0000000000
     50964      4074  MEOH      O1            -10.7087125052       14.5872858801       -1.0580604009  MEOH      3382            0.0000000000
     50965      4074  MEOH      DO1           -10.7096997660       14.5965562025       -1.0719872559  MEOH      3382            0.0000000000
     50966      4074  MEOH      HO1           -10.6276396629       14.0600638368       -0.2478973848  MEOH      3382            0.0000000000
     50967      4074  MEOH      HO2           -11.5856330211       14.8674845753       -1.3636730642  MEOH      3382            0.0000000000
     50968      4074  MEOH      H1A           -10.0412522017       16.4172012602       -1.8037192312  MEOH      3382            0.0000000000
     50969      4074  MEOH      H1B            -8.8718257718       15.5392504862       -0.7463419554  MEOH      3382            0.0000000000
     50970      4074  MEOH      H1C           -10.3130187599       16.3457281008       -0.0112275188  MEOH      3382            0.0000000000
     50971      4074  MEOH      LP1A          -11.0380214627       14.6401589933       -0.9519470445  MEOH      3382            0.0000000000
     50972      4074  MEOH      LP1B          -10.5104260386       14.3372719895       -1.2018502881  MEOH      3382            0.0000000000
     50973      4075  MEOH      C1             23.7184613594       26.9253757971        7.8865152996  MEOH      3383            0.0000000000
     50974      4075  MEOH      DC1            23.7338603102       26.9281726077        7.8742301948  MEOH      3383            0.0000000000
     50975      4075  MEOH      O1             24.0210450407       25.6297946207        8.3948564925  MEOH      3383            0.0000000000
     50976      4075  MEOH      DO1            24.0370270113       25.6322319968        8.3855565330  MEOH      3383            0.0000000000
     50977      4075  MEOH      HO1            23.6806026690       24.9772826248        7.7630122975  MEOH      3383            0.0000000000
     50978      4075  MEOH      HO2            24.9448214237       25.6534899029        8.6897729715  MEOH      3383            0.0000000000
     50979      4075  MEOH      H1A            23.9135354536       27.6962500556        8.6624147619  MEOH      3383            0.0000000000
     50980      4075  MEOH      H1B            22.6421071355       26.9804670318        7.6167977794  MEOH      3383            0.0000000000
     50981      4075  MEOH      H1C            24.3488599861       27.1554972319        7.0010986191  MEOH      3383            0.0000000000
     50982      4075  MEOH      LP1A           24.3364732237       25.5278150750        8.2825834609  MEOH      3383            0.0000000000
     50983      4075  MEOH      LP1B           23.7614917741       25.5187553330        8.6017438493  MEOH      3383            0.0000000000
     50984      4076  MEOH      C1            -18.5335864890      -33.8893649100       -6.8620364333  MEOH      3384            0.0000000000
     50985      4076  MEOH      DC1           -18.5233709654      -33.8756921592       -6.8530363051  MEOH      3384            0.0000000000
     50986      4076  MEOH      O1            -17.8113060766      -34.4073710471       -7.9793151564  MEOH      3384            0.0000000000
     50987      4076  MEOH      DO1           -17.8007739301      -34.3803457968       -7.9705113474  MEOH      3384            0.0000000000
     50988      4076  MEOH      HO1           -18.4459215535      -34.7387221153       -8.6338147103  MEOH      3384            0.0000000000
     50989      4076  MEOH      HO2           -17.1125233476      -33.7719956998       -8.2004505610  MEOH      3384            0.0000000000
     50990      4076  MEOH      H1A           -17.8497527934      -33.7594460137       -5.9961186791  MEOH      3384            0.0000000000
     50991      4076  MEOH      H1B           -19.3405097914      -34.5949563842       -6.5699123899  MEOH      3384            0.0000000000
     50992      4076  MEOH      H1C           -18.9766158869      -32.9021702053       -7.1140137498  MEOH      3384            0.0000000000
     50993      4076  MEOH      LP1A          -17.7536130567      -34.1531435424       -8.2128529291  MEOH      3384            0.0000000000
     50994      4076  MEOH      LP1B          -17.7379797399      -34.7457350897       -7.9280021661  MEOH      3384            0.0000000000
     50995      4077  MEOH      C1             29.3629835882       27.2019207779       19.2515546865  MEOH      3385            0.0000000000
     50996      4077  MEOH      DC1            29.3635963983       27.1980977666       19.2487033774  MEOH      3385            0.0000000000
     50997      4077  MEOH      O1             29.5193024511       25.7828847880       19.1784652309  MEOH      3385            0.0000000000
     50998      4077  MEOH      DO1            29.5266987902       25.7764982903       19.1762107058  MEOH      3385            0.0000000000
     50999      4077  MEOH      HO1            29.2175118182       25.4312750045       20.0306347998  MEOH      3385            0.0000000000
     51000      4077  MEOH      HO2            29.0565541838       25.5136167018       18.3696026098  MEOH      3385            0.0000000000
     51001      4077  MEOH      H1A            29.6174296368       27.6651338374       18.2743075991  MEOH      3385            0.0000000000
     51002      4077  MEOH      H1B            30.0297834338       27.6166189598       20.0375091287  MEOH      3385            0.0000000000
     51003      4077  MEOH      H1C            28.3101948755       27.4509215699       19.5044489974  MEOH      3385            0.0000000000
     51004      4077  MEOH      LP1A           29.2292727696       25.6370870705       19.0475996150  MEOH      3385            0.0000000000
     51005      4077  MEOH      LP1B           29.8396016927       25.6920197486       19.2864093853  MEOH      3385            0.0000000000
     51006      4078  MEOH      C1             -9.5515362060       -8.8985833928       22.2794791866  MEOH      3386            0.0000000000
     51007      4078  MEOH      DC1            -9.5461610243       -8.9037943833       22.2779805108  MEOH      3386            0.0000000000
     51008      4078  MEOH      O1            -10.7409960773       -8.8155556632       21.4870962403  MEOH      3386            0.0000000000
     51009      4078  MEOH      DO1           -10.7356003062       -8.8312104725       21.4823248285  MEOH      3386            0.0000000000
     51010      4078  MEOH      HO1           -10.7517050058       -7.9528940903       21.0436998832  MEOH      3386            0.0000000000
     51011      4078  MEOH      HO2           -10.8024844738       -9.6462883527       20.9901029041  MEOH      3386            0.0000000000
     51012      4078  MEOH      H1A            -9.6053558607       -9.7959019660       22.9323526997  MEOH      3386            0.0000000000
     51013      4078  MEOH      H1B            -9.4589307330       -8.0000453368       22.9262980084  MEOH      3386            0.0000000000
     51014      4078  MEOH      H1C            -8.6567821544       -8.9729546189       21.6251053562  MEOH      3386            0.0000000000
     51015      4078  MEOH      LP1A          -10.6806683829       -8.9432942958       21.1668722390  MEOH      3386            0.0000000000
     51016      4078  MEOH      LP1B          -11.0032568295       -8.6844647314       21.6782361510  MEOH      3386            0.0000000000
     51017      4079  MEOH      C1             30.4399424536      -27.5586181434       32.4391221612  MEOH      3387            0.0000000000
     51018      4079  MEOH      DC1            30.4277218800      -27.5454531690       32.4439772065  MEOH      3387            0.0000000000
     51019      4079  MEOH      O1             30.8655248125      -26.2386493900       32.0850756288  MEOH      3387            0.0000000000
     51020      4079  MEOH      DO1            30.8454966533      -26.2248489746       32.0843323760  MEOH      3387            0.0000000000
     51021      4079  MEOH      HO1            31.5284196017      -26.3417661740       31.3844777218  MEOH      3387            0.0000000000
     51022      4079  MEOH      HO2            30.0602172162      -25.7145771389       31.9519292733  MEOH      3387            0.0000000000
     51023      4079  MEOH      H1A            29.8400072005      -27.5234377809       33.3735530227  MEOH      3387            0.0000000000
     51024      4079  MEOH      H1B            31.3237144940      -28.2117650977       32.6024226104  MEOH      3387            0.0000000000
     51025      4079  MEOH      H1C            29.8250030394      -27.9985380482       31.6250945229  MEOH      3387            0.0000000000
     51026      4079  MEOH      LP1A           30.6600927222      -26.1103785151       31.8324014534  MEOH      3387            0.0000000000
     51027      4079  MEOH      LP1B           31.1349698219      -26.1417314330       32.2863373899  MEOH      3387            0.0000000000
     51028      4080  MEOH      C1              7.8178657291      -34.9649577535       12.8798786361  MEOH      3388            0.0000000000
     51029      4080  MEOH      DC1             7.7988741019      -34.9334689553       12.9036333181  MEOH      3388            0.0000000000
     51030      4080  MEOH      O1              7.8839465749      -33.5573433557       13.0817110488  MEOH      3388            0.0000000000
     51031      4080  MEOH      DO1             7.8760414629      -33.5301694656       13.0969181706  MEOH      3388            0.0000000000
     51032      4080  MEOH      HO1             8.4727595906      -33.2611626024       12.3700396402  MEOH      3388            0.0000000000
     51033      4080  MEOH      HO2             6.9668638528      -33.2457118456       13.1341045930  MEOH      3388            0.0000000000
     51034      4080  MEOH      H1A             7.2348386514      -35.4587260972       13.6864722451  MEOH      3388            0.0000000000
     51035      4080  MEOH      H1B             8.8539088028      -35.3650153841       12.9097055006  MEOH      3388            0.0000000000
     51036      4080  MEOH      H1C             7.3697155316      -35.1988643626       11.8905505302  MEOH      3388            0.0000000000
     51037      4080  MEOH      LP1A            7.6264672238      -33.3989067343       12.9053528316  MEOH      3388            0.0000000000
     51038      4080  MEOH      LP1B            8.1455093772      -33.4800090849       13.3010379988  MEOH      3388            0.0000000000
     51039      4081  MEOH      C1            -28.2018448146      -14.0757241048      -17.7250672352  MEOH      3389            0.0000000000
     51040      4081  MEOH      DC1           -28.2002284308      -14.0795686851      -17.7196840749  MEOH      3389            0.0000000000
     51041      4081  MEOH      O1            -26.9218694893      -13.7216690235      -17.2014904153  MEOH      3389            0.0000000000
     51042      4081  MEOH      DO1           -26.9145596590      -13.7174213783      -17.2056242263  MEOH      3389            0.0000000000
     51043      4081  MEOH      HO1           -27.0843690079      -13.0988081596      -16.4758608598  MEOH      3389            0.0000000000
     51044      4081  MEOH      HO2           -26.4654181628      -14.5607078150      -17.0324753481  MEOH      3389            0.0000000000
     51045      4081  MEOH      H1A           -28.0580529352      -14.7443447577      -18.6006192436  MEOH      3389            0.0000000000
     51046      4081  MEOH      H1B           -28.7452324433      -13.1663023339      -18.0597356205  MEOH      3389            0.0000000000
     51047      4081  MEOH      H1C           -28.7986706821      -14.6107369991      -16.9557291516  MEOH      3389            0.0000000000
     51048      4081  MEOH      LP1A          -26.8291487440      -13.9464736775      -16.9497649081  MEOH      3389            0.0000000000
     51049      4081  MEOH      LP1B          -26.7948744067      -13.4443300403      -17.3731159886  MEOH      3389            0.0000000000
     51050      4082  MEOH      C1            -20.6818436640      -16.8663722268       -2.9709384312  MEOH      3390            0.0000000000
     51051      4082  MEOH      DC1           -20.6822523034      -16.8773261427       -2.9541004215  MEOH      3390            0.0000000000
     51052      4082  MEOH      O1            -22.0618027509      -16.5362689052       -3.0511897334  MEOH      3390            0.0000000000
     51053      4082  MEOH      DO1           -22.0633970656      -16.5408207436       -3.0351051620  MEOH      3390            0.0000000000
     51054      4082  MEOH      HO1           -22.1007146405      -15.5788210090       -3.2017865163  MEOH      3390            0.0000000000
     51055      4082  MEOH      HO2           -22.4246748897      -17.1244011776       -3.7318689838  MEOH      3390            0.0000000000
     51056      4082  MEOH      H1A           -20.5598248915      -17.9639972391       -2.8498940035  MEOH      3390            0.0000000000
     51057      4082  MEOH      H1B           -20.2227990181      -16.3364427583       -2.1090951902  MEOH      3390            0.0000000000
     51058      4082  MEOH      H1C           -20.1727772547      -16.5590344772       -3.9094030808  MEOH      3390            0.0000000000
     51059      4082  MEOH      LP1A          -22.1726726305      -16.5647932799       -3.3819377188  MEOH      3390            0.0000000000
     51060      4082  MEOH      LP1B          -22.1861402260      -16.4631581640       -2.7322931800  MEOH      3390            0.0000000000
     51061      4083  MEOH      C1              2.7731974923      -36.5812693376       -9.9722327726  MEOH      3391            0.0000000000
     51062      4083  MEOH      DC1             2.7820247434      -36.5666021901       -9.9885966112  MEOH      3391            0.0000000000
     51063      4083  MEOH      O1              2.8826604781      -35.2460372749      -10.4575786448  MEOH      3391            0.0000000000
     51064      4083  MEOH      DO1             2.8924557575      -35.2302137750      -10.4975641527  MEOH      3391            0.0000000000
     51065      4083  MEOH      HO1             2.0943379298      -34.8333154201      -10.0714332960  MEOH      3391            0.0000000000
     51066      4083  MEOH      HO2             3.7577189157      -34.9422764312      -10.1696514282  MEOH      3391            0.0000000000
     51067      4083  MEOH      H1A             3.5073582888      -37.2586503794      -10.4585288235  MEOH      3391            0.0000000000
     51068      4083  MEOH      H1B             1.7327320599      -36.8983715555      -10.1985044434  MEOH      3391            0.0000000000
     51069      4083  MEOH      H1C             2.9085926388      -36.6520185279       -8.8717857240  MEOH      3391            0.0000000000
     51070      4083  MEOH      LP1A            3.0705721937      -35.0526013728      -10.2344828382  MEOH      3391            0.0000000000
     51071      4083  MEOH      LP1B            2.7228448742      -35.2179102227      -10.7676880475  MEOH      3391            0.0000000000
     51072      4084  MEOH      C1             33.3561853341      -12.5704239636      -20.5590799455  MEOH      3392            0.0000000000
     51073      4084  MEOH      DC1            33.3513741370      -12.5895450483      -20.5493952352  MEOH      3392            0.0000000000
     51074      4084  MEOH      O1             33.9381814497      -11.3036265599      -20.8724377339  MEOH      3392            0.0000000000
     51075      4084  MEOH      DO1            33.9390005119      -11.3283202126      -20.8826013589  MEOH      3392            0.0000000000
     51076      4084  MEOH      HO1            33.5971034834      -10.6151294446      -20.2803756230  MEOH      3392            0.0000000000
     51077      4084  MEOH      HO2            34.8912088552      -11.4684582805      -20.9463922399  MEOH      3392            0.0000000000
     51078      4084  MEOH      H1A            33.6387822440      -13.2896825736      -21.3572823263  MEOH      3392            0.0000000000
     51079      4084  MEOH      H1B            32.2484280775      -12.4895570538      -20.5334790872  MEOH      3392            0.0000000000
     51080      4084  MEOH      H1C            33.7323452858      -12.9614148310      -19.5895693306  MEOH      3392            0.0000000000
     51081      4084  MEOH      LP1A           34.2347993702      -11.2601929946      -20.6917962805  MEOH      3392            0.0000000000
     51082      4084  MEOH      LP1B           33.7451519578      -11.1396792373      -21.1140177220  MEOH      3392            0.0000000000
     51083      4085  MEOH      C1            -13.0400285183      -13.6651057978        3.5123260345  MEOH      3393            0.0000000000
     51084      4085  MEOH      DC1           -13.0467233756      -13.6667405780        3.5185587283  MEOH      3393            0.0000000000
     51085      4085  MEOH      O1            -12.1058227168      -14.7251601466        3.3477128272  MEOH      3393            0.0000000000
     51086      4085  MEOH      DO1           -12.1031851064      -14.7263444079        3.3469684228  MEOH      3393            0.0000000000
     51087      4085  MEOH      HO1           -11.9978425297      -15.1620086462        4.2070170037  MEOH      3393            0.0000000000
     51088      4085  MEOH      HO2           -12.4207554442      -15.2197611049        2.5749986046  MEOH      3393            0.0000000000
     51089      4085  MEOH      H1A           -13.2060270040      -13.1395042541        2.5476973388  MEOH      3393            0.0000000000
     51090      4085  MEOH      H1B           -12.6644180511      -12.9286434749        4.2545261583  MEOH      3393            0.0000000000
     51091      4085  MEOH      H1C           -14.0026780830      -14.1012725550        3.8549415291  MEOH      3393            0.0000000000
     51092      4085  MEOH      LP1A          -12.2727092882      -15.0184432052        3.2547939386  MEOH      3393            0.0000000000
     51093      4085  MEOH      LP1B          -11.7806237603      -14.6076083287        3.4018165128  MEOH      3393            0.0000000000
     51094      4086  MEOH      C1             -7.4329274261       19.6651732548      -12.4226741223  MEOH      3394            0.0000000000
     51095      4086  MEOH      DC1            -7.4296512648       19.6619750940      -12.4336778855  MEOH      3394            0.0000000000
     51096      4086  MEOH      O1             -7.3100484455       18.2463815492      -12.5080251431  MEOH      3394            0.0000000000
     51097      4086  MEOH      DO1            -7.2967185020       18.2456288049      -12.5318013076  MEOH      3394            0.0000000000
     51098      4086  MEOH      HO1            -7.7678225424       17.9283495149      -13.3018755715  MEOH      3394            0.0000000000
     51099      4086  MEOH      HO2            -6.4021912740       18.0136258744      -12.2579848421  MEOH      3394            0.0000000000
     51100      4086  MEOH      H1A            -7.2563876627       19.9884442450      -11.3745087817  MEOH      3394            0.0000000000
     51101      4086  MEOH      H1B            -8.4581952516       19.9730863874      -12.7198885063  MEOH      3394            0.0000000000
     51102      4086  MEOH      H1C            -6.6901458254       20.1584085948      -13.0854828375  MEOH      3394            0.0000000000
     51103      4086  MEOH      LP1A           -7.0195448427       18.1617533153      -12.6839390960  MEOH      3394            0.0000000000
     51104      4086  MEOH      LP1B           -7.5738317130       18.0928590240      -12.3367089966  MEOH      3394            0.0000000000
     51105      4087  MEOH      C1            -25.8241821812       -2.9788665733       -3.5447321904  MEOH      3395            0.0000000000
     51106      4087  MEOH      DC1           -25.8262982711       -2.9821570880       -3.5426303199  MEOH      3395            0.0000000000
     51107      4087  MEOH      O1            -25.1730952601       -1.8334619428       -4.0988063998  MEOH      3395            0.0000000000
     51108      4087  MEOH      DO1           -25.1690578733       -1.8369161683       -4.0930242700  MEOH      3395            0.0000000000
     51109      4087  MEOH      HO1           -24.5091854871       -2.1490391601       -4.7316846149  MEOH      3395            0.0000000000
     51110      4087  MEOH      HO2           -25.8875757250       -1.2582043083       -4.4142367713  MEOH      3395            0.0000000000
     51111      4087  MEOH      H1A           -26.5756068607       -2.6486051718       -2.7959936795  MEOH      3395            0.0000000000
     51112      4087  MEOH      H1B           -25.0817117546       -3.6409286921       -3.0500278163  MEOH      3395            0.0000000000
     51113      4087  MEOH      H1C           -26.3410247241       -3.5471475859       -4.3473849653  MEOH      3395            0.0000000000
     51114      4087  MEOH      LP1A          -25.3458688573       -1.7230974927       -4.3824769345  MEOH      3395            0.0000000000
     51115      4087  MEOH      LP1B          -24.8978397776       -1.7451084099       -3.9015044166  MEOH      3395            0.0000000000
     51116      4088  MEOH      C1             34.6005325212      -26.4286432057      -32.9555433009  MEOH      3396            0.0000000000
     51117      4088  MEOH      DC1            34.5978504518      -26.4307831015      -32.9566124538  MEOH      3396            0.0000000000
     51118      4088  MEOH      O1             36.0187344768      -26.4923195305      -32.7898119108  MEOH      3396            0.0000000000
     51119      4088  MEOH      DO1            36.0158742738      -26.4925685569      -32.7885016404  MEOH      3396            0.0000000000
     51120      4088  MEOH      HO1            36.2202971542      -26.2717424639      -31.8669802655  MEOH      3396            0.0000000000
     51121      4088  MEOH      HO2            36.2919428484      -27.3476094888      -33.1568763096  MEOH      3396            0.0000000000
     51122      4088  MEOH      H1A            34.3467437207      -26.5848292977      -34.0258321159  MEOH      3396            0.0000000000
     51123      4088  MEOH      H1B            34.2207992874      -25.4350492650      -32.6347711817  MEOH      3396            0.0000000000
     51124      4088  MEOH      H1C            34.1125992975      -27.2235595474      -32.3519290375  MEOH      3396            0.0000000000
     51125      4088  MEOH      LP1A           36.1143433402      -26.8168930989      -32.7003080339  MEOH      3396            0.0000000000
     51126      4088  MEOH      LP1B           36.1618455992      -26.1813192508      -32.8625994966  MEOH      3396            0.0000000000
     51127      4089  MEOH      C1            -16.3895885897      -25.3027934884       22.8944391221  MEOH      3397            0.0000000000
     51128      4089  MEOH      DC1           -16.3833352026      -25.3083120286       22.8950112086  MEOH      3397            0.0000000000
     51129      4089  MEOH      O1            -17.2374763582      -26.2905640414       22.3114866978  MEOH      3397            0.0000000000
     51130      4089  MEOH      DO1           -17.2381834872      -26.2980149458       22.3117244941  MEOH      3397            0.0000000000
     51131      4089  MEOH      HO1           -17.6180766007      -25.8814754165       21.5185869864  MEOH      3397            0.0000000000
     51132      4089  MEOH      HO2           -16.6975578259      -27.0936534050       22.2448874957  MEOH      3397            0.0000000000
     51133      4089  MEOH      H1A           -15.9848209211      -25.6762205379       23.8593413834  MEOH      3397            0.0000000000
     51134      4089  MEOH      H1B           -16.9807874090      -24.3801482683       23.0775531681  MEOH      3397            0.0000000000
     51135      4089  MEOH      H1C           -15.5458660267      -25.0565533669       22.2148664320  MEOH      3397            0.0000000000
     51136      4089  MEOH      LP1A          -17.0546784724      -26.4884776954       22.0880697815  MEOH      3397            0.0000000000
     51137      4089  MEOH      LP1B          -17.5598627956      -26.2657624701       22.4454712752  MEOH      3397            0.0000000000
     51138      4090  MEOH      C1            -18.1240263797      -28.2662664014      -13.5273010682  MEOH      3398            0.0000000000
     51139      4090  MEOH      DC1           -18.1163618065      -28.2767747771      -13.5182870437  MEOH      3398            0.0000000000
     51140      4090  MEOH      O1            -18.8058381924      -29.0581567378      -12.5550023770  MEOH      3398            0.0000000000
     51141      4090  MEOH      DO1           -18.7980038001      -29.0577787262      -12.5413734981  MEOH      3398            0.0000000000
     51142      4090  MEOH      HO1           -19.7267938407      -29.1131833742      -12.8545232672  MEOH      3398            0.0000000000
     51143      4090  MEOH      HO2           -18.2839351717      -29.8720075791      -12.4764909431  MEOH      3398            0.0000000000
     51144      4090  MEOH      H1A           -17.0591546892      -28.1392834523      -13.2370518418  MEOH      3398            0.0000000000
     51145      4090  MEOH      H1B           -18.5923381519      -27.2621716153      -13.6097555767  MEOH      3398            0.0000000000
     51146      4090  MEOH      H1C           -18.1796429799      -28.7568586733      -14.5225633538  MEOH      3398            0.0000000000
     51147      4090  MEOH      LP1A          -18.7863311516      -29.3967701917      -12.6413760085  MEOH      3398            0.0000000000
     51148      4090  MEOH      LP1B          -18.9299388754      -28.8535118122      -12.2996213384  MEOH      3398            0.0000000000
     51149      4091  MEOH      C1             32.0639559111      -22.0009990990       22.2596688747  MEOH      3399            0.0000000000
     51150      4091  MEOH      DC1            32.0522879108      -21.9799669184       22.2645104281  MEOH      3399            0.0000000000
     51151      4091  MEOH      O1             33.0232758397      -21.5223226190       23.2025265549  MEOH      3399            0.0000000000
     51152      4091  MEOH      DO1            33.0126321201      -21.4991540811       23.2082073308  MEOH      3399            0.0000000000
     51153      4091  MEOH      HO1            33.4601222801      -22.3075412013       23.5678989213  MEOH      3399            0.0000000000
     51154      4091  MEOH      HO2            33.5368589458      -20.8428387000       22.7383778750  MEOH      3399            0.0000000000
     51155      4091  MEOH      H1A            31.4749481228      -21.1575652435       21.8401332299  MEOH      3399            0.0000000000
     51156      4091  MEOH      H1B            31.3873687536      -22.7318664715       22.7519936682  MEOH      3399            0.0000000000
     51157      4091  MEOH      H1C            32.5922778967      -22.5107919297       21.4258174787  MEOH      3399            0.0000000000
     51158      4091  MEOH      LP1A           33.3285173400      -21.4616065524       23.0423979012  MEOH      3399            0.0000000000
     51159      4091  MEOH      LP1B           32.8757656183      -21.4919674550       23.5184684777  MEOH      3399            0.0000000000
     51160      4092  MEOH      C1            -16.8563439721        5.7808175106        2.7318774871  MEOH      3400            0.0000000000
     51161      4092  MEOH      DC1           -16.8592696073        5.7751680172        2.7324913297  MEOH      3400            0.0000000000
     51162      4092  MEOH      O1            -16.5928598114        5.2744802906        4.0312936424  MEOH      3400            0.0000000000
     51163      4092  MEOH      DO1           -16.5959138754        5.2687997450        4.0256667158  MEOH      3400            0.0000000000
     51164      4092  MEOH      HO1           -17.1477723985        5.7491959149        4.6697426198  MEOH      3400            0.0000000000
     51165      4092  MEOH      HO2           -16.6240376854        4.3079554579        3.9554142051  MEOH      3400            0.0000000000
     51166      4092  MEOH      H1A           -16.1776172346        5.2959260896        1.9980305498  MEOH      3400            0.0000000000
     51167      4092  MEOH      H1B           -16.6884624274        6.8783512684        2.6924257679  MEOH      3400            0.0000000000
     51168      4092  MEOH      H1C           -17.9098059135        5.5682827092        2.4501544029  MEOH      3400            0.0000000000
     51169      4092  MEOH      LP1A          -16.8039874878        5.0037549557        4.0993590321  MEOH      3400            0.0000000000
     51170      4092  MEOH      LP1B          -16.3296242105        5.4524655892        4.1780187320  MEOH      3400            0.0000000000
     51171      4093  MEOH      C1            -20.0215343469       15.0447738535      -30.3278120555  MEOH      3401            0.0000000000
     51172      4093  MEOH      DC1           -20.0276153656       15.0566997120      -30.3232924700  MEOH      3401            0.0000000000
     51173      4093  MEOH      O1            -18.7274889779       15.3048423915      -29.7769094340  MEOH      3401            0.0000000000
     51174      4093  MEOH      DO1           -18.7292950982       15.3207625352      -29.7747791625  MEOH      3401            0.0000000000
     51175      4093  MEOH      HO1           -18.7288569902       14.9427278950      -28.8770365430  MEOH      3401            0.0000000000
     51176      4093  MEOH      HO2           -18.1022806383       14.9352668058      -30.4198934300  MEOH      3401            0.0000000000
     51177      4093  MEOH      H1A           -20.0546907011       15.3996148916      -31.3800997987  MEOH      3401            0.0000000000
     51178      4093  MEOH      H1B           -20.8014340187       15.5705879310      -29.7365447234  MEOH      3401            0.0000000000
     51179      4093  MEOH      H1C           -20.2228159398       13.9521754376      -30.3218602430  MEOH      3401            0.0000000000
     51180      4093  MEOH      LP1A          -18.5103048784       15.0407351152      -29.8515982119  MEOH      3401            0.0000000000
     51181      4093  MEOH      LP1B          -18.7249197040       15.6175862953      -29.6197959418  MEOH      3401            0.0000000000
     51182      4094  MEOH      C1             -6.9407931573      -25.5613319579       11.4345669814  MEOH      3402            0.0000000000
     51183      4094  MEOH      DC1            -6.9529617310      -25.5598332639       11.4268238901  MEOH      3402            0.0000000000
     51184      4094  MEOH      O1             -7.6369611950      -24.4108739008       10.9585134825  MEOH      3402            0.0000000000
     51185      4094  MEOH      DO1            -7.6524758609      -24.4042162759       10.9536993728  MEOH      3402            0.0000000000
     51186      4094  MEOH      HO1            -7.7620057907      -23.8588054743       11.7462217417  MEOH      3402            0.0000000000
     51187      4094  MEOH      HO2            -7.0923778297      -24.0708930119       10.2313670363  MEOH      3402            0.0000000000
     51188      4094  MEOH      H1A            -6.6718787108      -26.2436747952       10.6000525879  MEOH      3402            0.0000000000
     51189      4094  MEOH      H1B            -7.5679450703      -26.1195035252       12.1621973695  MEOH      3402            0.0000000000
     51190      4094  MEOH      H1C            -6.0002561280      -25.2303289395       11.9246160594  MEOH      3402            0.0000000000
     51191      4094  MEOH      LP1A           -7.4083306853      -24.1672564181       10.8542128969  MEOH      3402            0.0000000000
     51192      4094  MEOH      LP1B           -7.9823573413      -24.4657526029       10.9722913693  MEOH      3402            0.0000000000
     51193      4095  MEOH      C1            -19.5053543863       15.7049404179       27.9349957596  MEOH      3403            0.0000000000
     51194      4095  MEOH      DC1           -19.5066294697       15.7141756572       27.9309521302  MEOH      3403            0.0000000000
     51195      4095  MEOH      O1            -18.1590582041       16.1131055875       28.1937029149  MEOH      3403            0.0000000000
     51196      4095  MEOH      DO1           -18.1568227143       16.1292485990       28.1931135140  MEOH      3403            0.0000000000
     51197      4095  MEOH      HO1           -17.6136953136       15.7993801904       27.4554240428  MEOH      3403            0.0000000000
     51198      4095  MEOH      HO2           -18.1955248645       17.0464173647       28.4554266427  MEOH      3403            0.0000000000
     51199      4095  MEOH      H1A           -20.1494493284       15.9218081543       28.8138763503  MEOH      3403            0.0000000000
     51200      4095  MEOH      H1B           -19.5415359789       14.6122830011       27.7372290725  MEOH      3403            0.0000000000
     51201      4095  MEOH      H1C           -19.8958319824       16.2503292353       27.0493325704  MEOH      3403            0.0000000000
     51202      4095  MEOH      LP1A          -18.1027663366       16.4316492405       28.0600572388  MEOH      3403            0.0000000000
     51203      4095  MEOH      LP1B          -17.9933886891       15.8677973646       28.3804580691  MEOH      3403            0.0000000000
     51204      4096  MEOH      C1             32.9329919805        2.5151738204      -12.6515215834  MEOH      3404            0.0000000000
     51205      4096  MEOH      DC1            32.9414843517        2.5094519587      -12.6574795537  MEOH      3404            0.0000000000
     51206      4096  MEOH      O1             33.7210977164        1.8419435952      -11.6735590876  MEOH      3404            0.0000000000
     51207      4096  MEOH      DO1            33.7241093924        1.8337938637      -11.6778330606  MEOH      3404            0.0000000000
     51208      4096  MEOH      HO1            33.9112152312        2.4869673383      -10.9744884893  MEOH      3404            0.0000000000
     51209      4096  MEOH      HO2            33.2322257000        1.0316620225      -11.4606085634  MEOH      3404            0.0000000000
     51210      4096  MEOH      H1A            32.7251803717        1.8236633447      -13.4958844195  MEOH      3404            0.0000000000
     51211      4096  MEOH      H1B            33.4716789419        3.4073594941      -13.0364138836  MEOH      3404            0.0000000000
     51212      4096  MEOH      H1C            31.9696878767        2.8347847481      -12.1996199808  MEOH      3404            0.0000000000
     51213      4096  MEOH      LP1A           33.5133892500        1.6898850452      -11.4364190650  MEOH      3404            0.0000000000
     51214      4096  MEOH      LP1B           34.0607765000        1.8712867181      -11.7526622173  MEOH      3404            0.0000000000
     51215      4097  MEOH      C1             30.2023287306       15.8133118627      -28.7173163109  MEOH      3405            0.0000000000
     51216      4097  MEOH      DC1            30.1781180300       15.8342916059      -28.7088578881  MEOH      3405            0.0000000000
     51217      4097  MEOH      O1             30.7217030721       17.0302685708      -28.1717738098  MEOH      3405            0.0000000000
     51218      4097  MEOH      DO1            30.7055816224       17.0456860019      -28.1769547704  MEOH      3405            0.0000000000
     51219      4097  MEOH      HO1            31.6871455250       16.9371426765      -28.1595902736  MEOH      3405            0.0000000000
     51220      4097  MEOH      HO2            30.2665459123       17.7655816421      -28.6111445497  MEOH      3405            0.0000000000
     51221      4097  MEOH      H1A            29.1157366983       15.7304560716      -28.5010440873  MEOH      3405            0.0000000000
     51222      4097  MEOH      H1B            30.7333960917       14.9537796843      -28.2552633999  MEOH      3405            0.0000000000
     51223      4097  MEOH      H1C            30.3560140969       15.7533332083      -29.8159993267  MEOH      3405            0.0000000000
     51224      4097  MEOH      LP1A           30.7760181927       17.2626440746      -28.4278040677  MEOH      3405            0.0000000000
     51225      4097  MEOH      LP1B           30.7435872538       17.0055119498      -27.8233370260  MEOH      3405            0.0000000000
     51226      4098  MEOH      C1            -17.0560125250      -36.0607378585       32.5602981249  MEOH      3406            0.0000000000
     51227      4098  MEOH      DC1           -17.0566742266      -36.0708145855       32.5597865812  MEOH      3406            0.0000000000
     51228      4098  MEOH      O1            -16.3561050083      -35.2301645972       31.6372661408  MEOH      3406            0.0000000000
     51229      4098  MEOH      DO1           -16.3447280999      -35.2413985020       31.6361690612  MEOH      3406            0.0000000000
     51230      4098  MEOH      HO1           -16.7692222397      -35.3662648370       30.7702535235  MEOH      3406            0.0000000000
     51231      4098  MEOH      HO2           -16.3782534552      -34.3425022464       32.0277338056  MEOH      3406            0.0000000000
     51232      4098  MEOH      H1A           -16.5334052449      -36.0811704852       33.5404946056  MEOH      3406            0.0000000000
     51233      4098  MEOH      H1B           -17.1355802093      -37.0770529993       32.1186042050  MEOH      3406            0.0000000000
     51234      4098  MEOH      H1C           -18.0943741612      -35.6941826551       32.7078223443  MEOH      3406            0.0000000000
     51235      4098  MEOH      LP1A          -16.5039713899      -34.9131500951       31.6255469825  MEOH      3406            0.0000000000
     51236      4098  MEOH      LP1B          -16.0838783898      -35.4039786494       31.5024279286  MEOH      3406            0.0000000000
     51237      4099  MEOH      C1             -3.8760614553       26.4300744248        2.0290409390  MEOH      3407            0.0000000000
     51238      4099  MEOH      DC1            -3.8828965915       26.4301257356        2.0334270140  MEOH      3407            0.0000000000
     51239      4099  MEOH      O1             -2.6290256621       26.9749855060        2.4593160345  MEOH      3407            0.0000000000
     51240      4099  MEOH      DO1            -2.6298879078       26.9687926499        2.4644888111  MEOH      3407            0.0000000000
     51241      4099  MEOH      HO1            -2.0217706077       26.9212560563        1.7048265075  MEOH      3407            0.0000000000
     51242      4099  MEOH      HO2            -2.8401320523       27.8426195057        2.8381898057  MEOH      3407            0.0000000000
     51243      4099  MEOH      H1A            -4.5939208151       26.4468063005        2.8768138948  MEOH      3407            0.0000000000
     51244      4099  MEOH      H1B            -3.7446866336       25.3794371291        1.6925547891  MEOH      3407            0.0000000000
     51245      4099  MEOH      H1C            -4.2770551084       27.0343715327        1.1874055683  MEOH      3407            0.0000000000
     51246      4099  MEOH      LP1A           -2.6230061041       27.3201750118        2.4018010801  MEOH      3407            0.0000000000
     51247      4099  MEOH      LP1B           -2.4303254134       26.7231989400        2.5993936427  MEOH      3407            0.0000000000
     51248      4100  MEOH      C1            -35.8210943208      -34.1446438406        5.4801612571  MEOH      3408            0.0000000000
     51249      4100  MEOH      DC1           -35.8062749186      -34.1494155373        5.4737094048  MEOH      3408            0.0000000000
     51250      4100  MEOH      O1            -36.8544010805      -33.9622955378        6.4463788671  MEOH      3408            0.0000000000
     51251      4100  MEOH      DO1           -36.8231642866      -33.9650310097        6.4544158017  MEOH      3408            0.0000000000
     51252      4100  MEOH      HO1           -37.0400069937      -34.7838371220        6.9275439853  MEOH      3408            0.0000000000
     51253      4100  MEOH      HO2           -36.7168183934      -33.1029651631        6.8747739083  MEOH      3408            0.0000000000
     51254      4100  MEOH      H1A           -35.9288516547      -33.3657712141        4.6952620345  MEOH      3408            0.0000000000
     51255      4100  MEOH      H1B           -35.9064409500      -35.1458606907        5.0062395631  MEOH      3408            0.0000000000
     51256      4100  MEOH      H1C           -34.8254061859      -34.0519283015        5.9642376656  MEOH      3408            0.0000000000
     51257      4100  MEOH      LP1A          -36.7164052508      -33.8602875465        6.7514223405  MEOH      3408            0.0000000000
     51258      4100  MEOH      LP1B          -37.1667487998      -34.0226694856        6.3004546105  MEOH      3408            0.0000000000
     51259      4101  MEOH      C1             34.4823108970      -36.7569863138      -20.4695509142  MEOH      3409            0.0000000000
     51260      4101  MEOH      DC1            34.4632986409      -36.7597484155      -20.4716176666  MEOH      3409            0.0000000000
     51261      4101  MEOH      O1             33.1334430856      -36.5407028894      -20.0247916828  MEOH      3409            0.0000000000
     51262      4101  MEOH      DO1            33.1069373804      -36.5598838277      -20.0516681643  MEOH      3409            0.0000000000
     51263      4101  MEOH      HO1            32.7747897400      -35.7640418151      -20.4820283319  MEOH      3409            0.0000000000
     51264      4101  MEOH      HO2            32.6946753730      -37.4026180586      -19.9507299767  MEOH      3409            0.0000000000
     51265      4101  MEOH      H1A            35.0347750391      -37.3557421816      -19.7141730072  MEOH      3409            0.0000000000
     51266      4101  MEOH      H1B            35.0042005744      -35.7871093597      -20.6154647966  MEOH      3409            0.0000000000
     51267      4101  MEOH      H1C            34.5064533833      -37.3074460930      -21.4342955294  MEOH      3409            0.0000000000
     51268      4101  MEOH      LP1A           32.9107273669      -36.7207059607      -20.2260293606  MEOH      3409            0.0000000000
     51269      4101  MEOH      LP1B           33.1321974837      -36.3337780600      -19.7425142244  MEOH      3409            0.0000000000
     51270      4102  MEOH      C1             -8.4557810596       25.4238825972       27.8956940134  MEOH      3410            0.0000000000
     51271      4102  MEOH      DC1            -8.4540255608       25.4238789662       27.9014671696  MEOH      3410            0.0000000000
     51272      4102  MEOH      O1             -7.6470275553       26.1704362249       26.9911704384  MEOH      3410            0.0000000000
     51273      4102  MEOH      DO1            -7.6421718611       26.1715592581       27.0015336543  MEOH      3410            0.0000000000
     51274      4102  MEOH      HO1            -7.9833581921       26.0004439908       26.0973671362  MEOH      3410            0.0000000000
     51275      4102  MEOH      HO2            -7.6365570691       27.0751338478       27.3409025940  MEOH      3410            0.0000000000
     51276      4102  MEOH      H1A            -8.0623186880       25.5183675417       28.9303828353  MEOH      3410            0.0000000000
     51277      4102  MEOH      H1B            -8.4456502204       24.3517910119       27.6044243809  MEOH      3410            0.0000000000
     51278      4102  MEOH      H1C            -9.4972801521       25.8100503390       27.8738968338  MEOH      3410            0.0000000000
     51279      4102  MEOH      LP1A           -7.7805432175       26.4910597996       26.9478796618  MEOH      3410            0.0000000000
     51280      4102  MEOH      LP1B           -7.3714085737       25.9792463593       26.8912674240  MEOH      3410            0.0000000000
     51281      4103  MEOH      C1            -32.9454128060       34.4659262981       28.4431126967  MEOH      3411            0.0000000000
     51282      4103  MEOH      DC1           -32.9485956089       34.4715590374       28.4385859859  MEOH      3411            0.0000000000
     51283      4103  MEOH      O1            -33.7231030709       35.6462997107       28.6271528162  MEOH      3411            0.0000000000
     51284      4103  MEOH      DO1           -33.7235840812       35.6557560298       28.6118978375  MEOH      3411            0.0000000000
     51285      4103  MEOH      HO1           -34.1791003849       35.5517925494       29.4780551886  MEOH      3411            0.0000000000
     51286      4103  MEOH      HO2           -33.1015983141       36.3817392483       28.5098475576  MEOH      3411            0.0000000000
     51287      4103  MEOH      H1A           -32.4619930901       34.5091715753       27.4437347778  MEOH      3411            0.0000000000
     51288      4103  MEOH      H1B           -33.5828613628       33.5572832474       28.4915703482  MEOH      3411            0.0000000000
     51289      4103  MEOH      H1C           -32.1736960272       34.3898895989       29.2387210399  MEOH      3411            0.0000000000
     51290      4103  MEOH      LP1A          -33.5326982807       35.8909910066       28.7895479687  MEOH      3411            0.0000000000
     51291      4103  MEOH      LP1B          -34.0403784940       35.6038965724       28.4855961853  MEOH      3411            0.0000000000
     51292      4104  MEOH      C1            -27.4124978588      -23.8914980204       23.8509292526  MEOH      3412            0.0000000000
     51293      4104  MEOH      DC1           -27.4197872581      -23.8859203954       23.8342020293  MEOH      3412            0.0000000000
     51294      4104  MEOH      O1            -26.3563341509      -24.6428498487       23.2581418309  MEOH      3412            0.0000000000
     51295      4104  MEOH      DO1           -26.3602219671      -24.6385712239       23.2419165374  MEOH      3412            0.0000000000
     51296      4104  MEOH      HO1           -25.6828491998      -24.7358009888       23.9500075023  MEOH      3412            0.0000000000
     51297      4104  MEOH      HO2           -26.7773322241      -25.4413654049       22.9031298185  MEOH      3412            0.0000000000
     51298      4104  MEOH      H1A           -28.2260617539      -23.7248563196       23.1129147997  MEOH      3412            0.0000000000
     51299      4104  MEOH      H1B           -27.0260007038      -22.9066297962       24.1900096712  MEOH      3412            0.0000000000
     51300      4104  MEOH      H1C           -27.8137587495      -24.4435617197       24.7275913148  MEOH      3412            0.0000000000
     51301      4104  MEOH      LP1A          -26.4125406645      -24.9852306280       23.3041443284  MEOH      3412            0.0000000000
     51302      4104  MEOH      LP1B          -26.1286202002      -24.4272232452       23.1027342233  MEOH      3412            0.0000000000
     51303      4105  MEOH      C1            -23.0808035794      -36.7443844227       27.5075295145  MEOH      3413            0.0000000000
     51304      4105  MEOH      DC1           -23.0746052165      -36.7495051087       27.4987497085  MEOH      3413            0.0000000000
     51305      4105  MEOH      O1            -24.3949923287      -37.2307871789       27.7509438052  MEOH      3413            0.0000000000
     51306      4105  MEOH      DO1           -24.3795266848      -37.2456132475       27.7447319009  MEOH      3413            0.0000000000
     51307      4105  MEOH      HO1           -24.7662341389      -36.7719905528       28.5207393457  MEOH      3413            0.0000000000
     51308      4105  MEOH      HO2           -24.8707087024      -37.2018248305       26.9061035157  MEOH      3413            0.0000000000
     51309      4105  MEOH      H1A           -22.6151681894      -37.3738938777       26.7193528024  MEOH      3413            0.0000000000
     51310      4105  MEOH      H1B           -22.4728755400      -36.8064622902       28.4353715483  MEOH      3413            0.0000000000
     51311      4105  MEOH      H1C           -23.1287443440      -35.6892542404       27.1629674991  MEOH      3413            0.0000000000
     51312      4105  MEOH      LP1A          -24.6277532761      -37.0428504154       27.5692789645  MEOH      3413            0.0000000000
     51313      4105  MEOH      LP1B          -24.3824763584      -37.5077086016       27.9646208421  MEOH      3413            0.0000000000
     51314      4106  MEOH      C1            -13.2974743714        6.2712287790      -15.5276140902  MEOH      3414            0.0000000000
     51315      4106  MEOH      DC1           -13.3118787323        6.2808915828      -15.5268781333  MEOH      3414            0.0000000000
     51316      4106  MEOH      O1            -13.0457390012        4.9429217703      -15.9834632464  MEOH      3414            0.0000000000
     51317      4106  MEOH      DO1           -13.0530542490        4.9587776976      -15.9810023512  MEOH      3414            0.0000000000
     51318      4106  MEOH      HO1           -12.5968533933        4.4408482820      -15.2853773461  MEOH      3414            0.0000000000
     51319      4106  MEOH      HO2           -13.8765360600        4.6277888716      -16.3725230145  MEOH      3414            0.0000000000
     51320      4106  MEOH      H1A           -13.6684238490        6.8839137374      -16.3769283003  MEOH      3414            0.0000000000
     51321      4106  MEOH      H1B           -12.3670395831        6.7397307860      -15.1414561249  MEOH      3414            0.0000000000
     51322      4106  MEOH      H1C           -14.0648145831        6.2592993586      -14.7242662889  MEOH      3414            0.0000000000
     51323      4106  MEOH      LP1A          -13.3184872372        4.7368629214      -15.9083090678  MEOH      3414            0.0000000000
     51324      4106  MEOH      LP1B          -12.7356667148        4.9286039490      -16.1451734106  MEOH      3414            0.0000000000
     51325      4107  MEOH      C1            -29.7408727670       33.4230169257       27.9327295935  MEOH      3415            0.0000000000
     51326      4107  MEOH      DC1           -29.7454819379       33.4184020583       27.9261802243  MEOH      3415            0.0000000000
     51327      4107  MEOH      O1            -29.4378566008       32.0805773796       28.3070855815  MEOH      3415            0.0000000000
     51328      4107  MEOH      DO1           -29.4511141815       32.0768691109       28.3073672611  MEOH      3415            0.0000000000
     51329      4107  MEOH      HO1           -28.6034524775       32.1059222987       28.8010768710  MEOH      3415            0.0000000000
     51330      4107  MEOH      HO2           -30.2482446398       31.7222120356       28.7017316345  MEOH      3415            0.0000000000
     51331      4107  MEOH      H1A           -30.5795951753       33.4253027343       27.2041278521  MEOH      3415            0.0000000000
     51332      4107  MEOH      H1B           -28.8579908910       33.8921780092       27.4482417497  MEOH      3415            0.0000000000
     51333      4107  MEOH      H1C           -30.0161519385       34.0234625342       28.8260422207  MEOH      3415            0.0000000000
     51334      4107  MEOH      LP1A          -29.5843778149       32.0065252656       28.6161936827  MEOH      3415            0.0000000000
     51335      4107  MEOH      LP1B          -29.2500496502       31.9256687470       28.0556261118  MEOH      3415            0.0000000000
     51336      4108  MEOH      C1             32.1011943989      -21.6208813090       26.1883773908  MEOH      3416            0.0000000000
     51337      4108  MEOH      DC1            32.0897828121      -21.6051257842       26.1964665817  MEOH      3416            0.0000000000
     51338      4108  MEOH      O1             31.3482162279      -21.6533417326       27.3986888580  MEOH      3416            0.0000000000
     51339      4108  MEOH      DO1            31.3394720119      -21.6341126049       27.4124424342  MEOH      3416            0.0000000000
     51340      4108  MEOH      HO1            30.5907213274      -22.2348737553       27.2286242166  MEOH      3416            0.0000000000
     51341      4108  MEOH      HO2            31.9841046349      -21.8794952376       28.0953957740  MEOH      3416            0.0000000000
     51342      4108  MEOH      H1A            33.0210877893      -21.0112370737       26.3166390635  MEOH      3416            0.0000000000
     51343      4108  MEOH      H1B            31.4838666813      -21.1984441136       25.3669309185  MEOH      3416            0.0000000000
     51344      4108  MEOH      H1C            32.4089338044      -22.6489675221       25.9008774819  MEOH      3416            0.0000000000
     51345      4108  MEOH      LP1A           31.4643336353      -21.9110965859       27.6050360977  MEOH      3416            0.0000000000
     51346      4108  MEOH      LP1B           31.1132426478      -21.3939497324       27.4004796257  MEOH      3416            0.0000000000
     51347      4109  MEOH      C1             21.8095628882        4.8051295034       28.4548056019  MEOH      3417            0.0000000000
     51348      4109  MEOH      DC1            21.8146187129        4.8074438162       28.4599937583  MEOH      3417            0.0000000000
     51349      4109  MEOH      O1             22.2846744265        3.7806691883       27.5848612964  MEOH      3417            0.0000000000
     51350      4109  MEOH      DO1            22.2888018463        3.7896900436       27.5886209510  MEOH      3417            0.0000000000
     51351      4109  MEOH      HO1            22.0781608924        2.9225512762       27.9872116527  MEOH      3417            0.0000000000
     51352      4109  MEOH      HO2            21.9214314303        3.9956096857       26.7115027736  MEOH      3417            0.0000000000
     51353      4109  MEOH      H1A            22.0835598925        5.8025687346       28.0493902321  MEOH      3417            0.0000000000
     51354      4109  MEOH      H1B            22.2603369581        4.6887762889       29.4635601148  MEOH      3417            0.0000000000
     51355      4109  MEOH      H1C            20.7023982776        4.7453249128       28.5250262328  MEOH      3417            0.0000000000
     51356      4109  MEOH      LP1A           22.0364760299        3.6957508780       27.3531579591  MEOH      3417            0.0000000000
     51357      4109  MEOH      LP1B           22.6164954792        3.7015105040       27.6631472571  MEOH      3417            0.0000000000
     51358      4110  MEOH      C1            -28.3599946299       34.4837278595        7.4879878163  MEOH      3418            0.0000000000
     51359      4110  MEOH      DC1           -28.3518483077       34.4919795666        7.4956437160  MEOH      3418            0.0000000000
     51360      4110  MEOH      O1            -28.2388683190       35.6265182587        6.6420957061  MEOH      3418            0.0000000000
     51361      4110  MEOH      DO1           -28.2297778858       35.6274476917        6.6500541423  MEOH      3418            0.0000000000
     51362      4110  MEOH      HO1           -27.5269481618       35.4510616854        6.0070487152  MEOH      3418            0.0000000000
     51363      4110  MEOH      HO2           -29.1338433078       35.7753840388        6.2989357579  MEOH      3418            0.0000000000
     51364      4110  MEOH      H1A           -29.2082745834       34.6345416628        8.1894130221  MEOH      3418            0.0000000000
     51365      4110  MEOH      H1B           -27.4256671936       34.3310885897        8.0694123563  MEOH      3418            0.0000000000
     51366      4110  MEOH      H1C           -28.5585790865       33.5745700497        6.8810963182  MEOH      3418            0.0000000000
     51367      4110  MEOH      LP1A          -28.4510829632       35.5938882158        6.3656897996  MEOH      3418            0.0000000000
     51368      4110  MEOH      LP1B          -28.0148670185       35.8560174906        6.7822867184  MEOH      3418            0.0000000000
     51369      4111  MEOH      C1            -26.0188962485       24.3324461616      -12.9957579337  MEOH      3419            0.0000000000
     51370      4111  MEOH      DC1           -26.0299561771       24.3340700229      -12.9928260467  MEOH      3419            0.0000000000
     51371      4111  MEOH      O1            -26.6387582984       24.1837374487      -11.7144573727  MEOH      3419            0.0000000000
     51372      4111  MEOH      DO1           -26.6480287829       24.1835349812      -11.7111780178  MEOH      3419            0.0000000000
     51373      4111  MEOH      HO1           -26.1232777705       23.5174442925      -11.2335901817  MEOH      3419            0.0000000000
     51374      4111  MEOH      HO2           -26.7152828490       25.0814808610      -11.3551514303  MEOH      3419            0.0000000000
     51375      4111  MEOH      H1A           -26.6077819767       25.0394571043      -13.6183895471  MEOH      3419            0.0000000000
     51376      4111  MEOH      H1B           -25.9652037382       23.3506983418      -13.5130676420  MEOH      3419            0.0000000000
     51377      4111  MEOH      H1C           -24.9886007123       24.7312005275      -12.8782544683  MEOH      3419            0.0000000000
     51378      4111  MEOH      LP1A          -26.5012124933       24.4121331194      -11.4877051530  MEOH      3419            0.0000000000
     51379      4111  MEOH      LP1B          -26.8878459009       23.9383360198      -11.7297382425  MEOH      3419            0.0000000000
     51380      4112  MEOH      C1             25.9062624321      -28.7950892816       33.3500260338  MEOH      3420            0.0000000000
     51381      4112  MEOH      DC1            25.9110301040      -28.7909995314       33.3448262032  MEOH      3420            0.0000000000
     51382      4112  MEOH      O1             25.4457523668      -30.1381609663       33.5073829927  MEOH      3420            0.0000000000
     51383      4112  MEOH      DO1            25.4480580555      -30.1320021331       33.5124999550  MEOH      3420            0.0000000000
     51384      4112  MEOH      HO1            24.5175613390      -30.1844650679       33.2295028985  MEOH      3420            0.0000000000
     51385      4112  MEOH      HO2            26.1183042076      -30.7034777670       33.0962979210  MEOH      3420            0.0000000000
     51386      4112  MEOH      H1A            26.9346963351      -28.7151477197       33.7626445676  MEOH      3420            0.0000000000
     51387      4112  MEOH      H1B            25.2445265318      -28.1024775497       33.9128009330  MEOH      3420            0.0000000000
     51388      4112  MEOH      H1C            25.9311193077      -28.5106224704       32.2763492807  MEOH      3420            0.0000000000
     51389      4112  MEOH      LP1A           25.5077068483      -30.3209363567       33.2153987486  MEOH      3420            0.0000000000
     51390      4112  MEOH      LP1B           25.3169627990      -30.1835683057       33.8296428580  MEOH      3420            0.0000000000
     51391      4113  MEOH      C1             36.5018949971       23.2905362568       20.2456272989  MEOH      3421            0.0000000000
     51392      4113  MEOH      DC1            36.4984075439       23.2868951583       20.2407841310  MEOH      3421            0.0000000000
     51393      4113  MEOH      O1             36.4645609812       21.9129850617       20.6291778089  MEOH      3421            0.0000000000
     51394      4113  MEOH      DO1            36.4561056140       21.9060030867       20.6205863389  MEOH      3421            0.0000000000
     51395      4113  MEOH      HO1            36.1648435387       21.4086176807       19.8567252216  MEOH      3421            0.0000000000
     51396      4113  MEOH      HO2            37.3377694629       21.7244914233       21.0071686768  MEOH      3421            0.0000000000
     51397      4113  MEOH      H1A            36.8633010008       23.9086916818       21.0950921723  MEOH      3421            0.0000000000
     51398      4113  MEOH      H1B            35.4875643785       23.6390444074       19.9558058596  MEOH      3421            0.0000000000
     51399      4113  MEOH      H1C            37.2053391374       23.4318497497       19.3973833253  MEOH      3421            0.0000000000
     51400      4113  MEOH      LP1A           36.7751929243       21.7634494076       20.5687883723  MEOH      3421            0.0000000000
     51401      4113  MEOH      LP1B           36.1513004915       21.8347892515       20.7642825122  MEOH      3421            0.0000000000
     51402      4114  MEOH      C1            -14.3716436587      -20.8006486020      -34.0286919562  MEOH      3422            0.0000000000
     51403      4114  MEOH      DC1           -14.3695104330      -20.8010698314      -34.0142238902  MEOH      3422            0.0000000000
     51404      4114  MEOH      O1            -15.1252044025      -21.0067934392      -32.8302743733  MEOH      3422            0.0000000000
     51405      4114  MEOH      DO1           -15.1200697017      -20.9992800497      -32.8188272790  MEOH      3422            0.0000000000
     51406      4114  MEOH      HO1           -15.9283082259      -20.4687463485      -32.9104590166  MEOH      3422            0.0000000000
     51407      4114  MEOH      HO2           -15.2200249557      -21.9687962878      -32.7499028436  MEOH      3422            0.0000000000
     51408      4114  MEOH      H1A           -13.4711522454      -21.4513093617      -34.0199289073  MEOH      3422            0.0000000000
     51409      4114  MEOH      H1B           -14.0441897533      -19.7410182603      -34.0941020371  MEOH      3422            0.0000000000
     51410      4114  MEOH      H1C           -14.9838792532      -21.0534547138      -34.9206435517  MEOH      3422            0.0000000000
     51411      4114  MEOH      LP1A          -15.3396270583      -21.2806526945      -32.8693132386  MEOH      3422            0.0000000000
     51412      4114  MEOH      LP1B          -15.0287831081      -20.7745763212      -32.5868033399  MEOH      3422            0.0000000000
     51413      4115  MEOH      C1              1.5170446361       32.4197962460       -1.5497403073  MEOH      3423            0.0000000000
     51414      4115  MEOH      DC1             1.5130467121       32.4253453066       -1.5506892447  MEOH      3423            0.0000000000
     51415      4115  MEOH      O1              2.2083108978       31.1941937752       -1.3044825769  MEOH      3423            0.0000000000
     51416      4115  MEOH      DO1             2.2043751288       31.2012579391       -1.3093789608  MEOH      3423            0.0000000000
     51417      4115  MEOH      HO1             2.3415576864       31.1005914103       -0.3482483525  MEOH      3423            0.0000000000
     51418      4115  MEOH      HO2             1.7395443913       30.5118312092       -1.8099915194  MEOH      3423            0.0000000000
     51419      4115  MEOH      H1A             1.5105664793       32.6173715825       -2.6430120120  MEOH      3423            0.0000000000
     51420      4115  MEOH      H1B             2.0298998149       33.2608695613       -1.0360319817  MEOH      3423            0.0000000000
     51421      4115  MEOH      H1C             0.4647599696       32.3458453016       -1.2011011825  MEOH      3423            0.0000000000
     51422      4115  MEOH      LP1A            1.9786418217       30.9330741860       -1.2648760670  MEOH      3423            0.0000000000
     51423      4115  MEOH      LP1B            2.5540530018       31.2477370607       -1.3142557080  MEOH      3423            0.0000000000
     51424      4116  MEOH      C1             -5.1223962911       -2.6716316382      -27.3636645393  MEOH      3424            0.0000000000
     51425      4116  MEOH      DC1            -5.1128506368       -2.6678693319      -27.3510334540  MEOH      3424            0.0000000000
     51426      4116  MEOH      O1             -4.7186057083       -2.0960762767      -26.1261670286  MEOH      3424            0.0000000000
     51427      4116  MEOH      DO1            -4.6966579596       -2.1031734351      -26.1079180906  MEOH      3424            0.0000000000
     51428      4116  MEOH      HO1            -5.0565706339       -2.6707080192      -25.4215550286  MEOH      3424            0.0000000000
     51429      4116  MEOH      HO2            -3.7888289957       -1.8363396034      -26.2207826993  MEOH      3424            0.0000000000
     51430      4116  MEOH      H1A            -4.9798662802       -1.9393540181      -28.1869358697  MEOH      3424            0.0000000000
     51431      4116  MEOH      H1B            -6.1951243970       -2.9576481870      -27.3215938283  MEOH      3424            0.0000000000
     51432      4116  MEOH      H1C            -4.5178785190       -3.5813903631      -27.5666875114  MEOH      3424            0.0000000000
     51433      4116  MEOH      LP1A           -4.4038513206       -2.2184818562      -26.0342619169  MEOH      3424            0.0000000000
     51434      4116  MEOH      LP1B           -4.9602546518       -1.8683175568      -26.0155697699  MEOH      3424            0.0000000000
     51435      4117  MEOH      C1              4.6482588288       33.4844959705      -33.2641380494  MEOH      3425            0.0000000000
     51436      4117  MEOH      DC1             4.6437766638       33.4800384092      -33.2687097058  MEOH      3425            0.0000000000
     51437      4117  MEOH      O1              4.7076004917       32.1395097846      -32.7875660156  MEOH      3425            0.0000000000
     51438      4117  MEOH      DO1             4.7067072566       32.1385656086      -32.7838096632  MEOH      3425            0.0000000000
     51439      4117  MEOH      HO1             4.4563544733       31.5607706171      -33.5243403461  MEOH      3425            0.0000000000
     51440      4117  MEOH      HO2             5.5833848943       32.0474473893      -32.3808398226  MEOH      3425            0.0000000000
     51441      4117  MEOH      H1A             4.8375084801       34.1939830434      -32.4303912870  MEOH      3425            0.0000000000
     51442      4117  MEOH      H1B             3.6515366360       33.6949922955      -33.7074857320  MEOH      3425            0.0000000000
     51443      4117  MEOH      H1C             5.4482767546       33.6491297175      -34.0172569306  MEOH      3425            0.0000000000
     51444      4117  MEOH      LP1A            5.0291855460       32.0097746166      -32.8350195617  MEOH      3425            0.0000000000
     51445      4117  MEOH      LP1B            4.3992268005       32.0475769552      -32.6498924109  MEOH      3425            0.0000000000
     51446      4118  MEOH      C1              3.9197550380       -8.8331673532       -9.1390855642  MEOH      3426            0.0000000000
     51447      4118  MEOH      DC1             3.9144935482       -8.8432041184       -9.1397714186  MEOH      3426            0.0000000000
     51448      4118  MEOH      O1              2.7627669847       -9.2197953147       -9.8817807558  MEOH      3426            0.0000000000
     51449      4118  MEOH      DO1             2.7568796705       -9.2283558721       -9.8745592478  MEOH      3426            0.0000000000
     51450      4118  MEOH      HO1             1.9934902294       -9.0709191018       -9.3099860837  MEOH      3426            0.0000000000
     51451      4118  MEOH      HO2             2.8237052025       -8.7364258979      -10.7205539916  MEOH      3426            0.0000000000
     51452      4118  MEOH      H1A             4.8322785617       -8.9862673227       -9.7540507812  MEOH      3426            0.0000000000
     51453      4118  MEOH      H1B             4.0007126234       -9.4382826963       -8.2108602184  MEOH      3426            0.0000000000
     51454      4118  MEOH      H1C             3.8742432787       -7.7549090762       -8.8752508273  MEOH      3426            0.0000000000
     51455      4118  MEOH      LP1A            2.6416750687       -8.9473749478      -10.0651489416  MEOH      3426            0.0000000000
     51456      4118  MEOH      LP1B            2.6965681270       -9.5598292886       -9.8318347063  MEOH      3426            0.0000000000
     51457      4119  MEOH      C1             34.5852191387      -12.4591665071        6.1747146855  MEOH      3427            0.0000000000
     51458      4119  MEOH      DC1            34.5862413051      -12.4481936416        6.1742496775  MEOH      3427            0.0000000000
     51459      4119  MEOH      O1             34.0513561382      -11.1344034203        6.2075867697  MEOH      3427            0.0000000000
     51460      4119  MEOH      DO1            34.0534020408      -11.1224657602        6.2135700569  MEOH      3427            0.0000000000
     51461      4119  MEOH      HO1            33.1032203883      -11.2242709632        6.3916042271  MEOH      3427            0.0000000000
     51462      4119  MEOH      HO2            34.6274418235      -10.6263112157        6.7999275469  MEOH      3427            0.0000000000
     51463      4119  MEOH      H1A            35.6351278773      -12.4318897613        5.8124045693  MEOH      3427            0.0000000000
     51464      4119  MEOH      H1B            33.9858988124      -13.0981164556        5.4914291598  MEOH      3427            0.0000000000
     51465      4119  MEOH      H1C            34.5600930126      -12.9076573092        7.1908572343  MEOH      3427            0.0000000000
     51466      4119  MEOH      LP1A           34.0728975602      -11.0046750481        6.5319423101  MEOH      3427            0.0000000000
     51467      4119  MEOH      LP1B           33.9507834108      -11.0378709709        5.8865468770  MEOH      3427            0.0000000000
     51468      4120  MEOH      C1             10.5588726147       12.1891535328      -13.6678464497  MEOH      3428            0.0000000000
     51469      4120  MEOH      DC1            10.5746855678       12.1945026234      -13.6845289792  MEOH      3428            0.0000000000
     51470      4120  MEOH      O1             11.9080939645       12.1814360282      -14.1397558778  MEOH      3428            0.0000000000
     51471      4120  MEOH      DO1            11.9222823885       12.1724945396      -14.1463336313  MEOH      3428            0.0000000000
     51472      4120  MEOH      HO1            12.4233046180       12.6790543041      -13.4856656440  MEOH      3428            0.0000000000
     51473      4120  MEOH      HO2            12.1242614888       11.2558570781      -14.3333410271  MEOH      3428            0.0000000000
     51474      4120  MEOH      H1A             9.8931804594       11.7469709048      -14.4396297609  MEOH      3428            0.0000000000
     51475      4120  MEOH      H1B            10.2176616522       13.2273079451      -13.4675179799  MEOH      3428            0.0000000000
     51476      4120  MEOH      H1C            10.4754929755       11.5929701160      -12.7340722965  MEOH      3428            0.0000000000
     51477      4120  MEOH      LP1A           12.0761707522       11.8999589423      -14.0171963267  MEOH      3428            0.0000000000
     51478      4120  MEOH      LP1B           11.9627707766       12.4554754562      -14.3504994141  MEOH      3428            0.0000000000
     51479      4121  MEOH      C1             21.5489496754       -6.3505890520        9.8584167814  MEOH      3429            0.0000000000
     51480      4121  MEOH      DC1            21.5462309963       -6.3657926210        9.8360717845  MEOH      3429            0.0000000000
     51481      4121  MEOH      O1             21.1801525350       -5.5054499784        8.7652355949  MEOH      3429            0.0000000000
     51482      4121  MEOH      DO1            21.1733867925       -5.5237390500        8.7460012396  MEOH      3429            0.0000000000
     51483      4121  MEOH      HO1            21.6930100275       -5.7332681380        7.9740490944  MEOH      3429            0.0000000000
     51484      4121  MEOH      HO2            20.2140542819       -5.4195075032        8.7781992999  MEOH      3429            0.0000000000
     51485      4121  MEOH      H1A            21.2322959977       -5.8864961849       10.8168891384  MEOH      3429            0.0000000000
     51486      4121  MEOH      H1B            22.6514071632       -6.4840650465        9.8914720172  MEOH      3429            0.0000000000
     51487      4121  MEOH      H1C            21.0560569025       -7.3418937890        9.7651824877  MEOH      3429            0.0000000000
     51488      4121  MEOH      LP1A           20.9134193775       -5.6475796918        8.5887346961  MEOH      3429            0.0000000000
     51489      4121  MEOH      LP1B           21.3775717292       -5.2164420007        8.7654604313  MEOH      3429            0.0000000000
     51490      4122  MEOH      C1            -25.5198084813        3.9084884612      -14.4507155221  MEOH      3430            0.0000000000
     51491      4122  MEOH      DC1           -25.5232291981        3.9109259894      -14.4572870317  MEOH      3430            0.0000000000
     51492      4122  MEOH      O1            -24.3067872056        3.2139562235      -14.1612181625  MEOH      3430            0.0000000000
     51493      4122  MEOH      DO1           -24.3094410891        3.2151440397      -14.1690496035  MEOH      3430            0.0000000000
     51494      4122  MEOH      HO1           -24.4826056977        2.5999215279      -13.4311844294  MEOH      3430            0.0000000000
     51495      4122  MEOH      HO2           -23.9727976177        2.8914942208      -15.0129042619  MEOH      3430            0.0000000000
     51496      4122  MEOH      H1A           -25.3152528905        4.7224529306      -15.1786852009  MEOH      3430            0.0000000000
     51497      4122  MEOH      H1B           -25.9364329958        4.3537462499      -13.5220118474  MEOH      3430            0.0000000000
     51498      4122  MEOH      H1C           -26.2614227795        3.2063050691      -14.8880571707  MEOH      3430            0.0000000000
     51499      4122  MEOH      LP1A          -24.2845552623        2.9249740345      -14.3574196790  MEOH      3430            0.0000000000
     51500      4122  MEOH      LP1B          -24.1202403385        3.3922856908      -13.9247887492  MEOH      3430            0.0000000000
     51501      4123  MEOH      C1             26.4018524863       18.9484583633      -10.4815922711  MEOH      3431            0.0000000000
     51502      4123  MEOH      DC1            26.4057836673       18.9585546389      -10.4771861600  MEOH      3431            0.0000000000
     51503      4123  MEOH      O1             26.5684337263       18.7836874145       -9.0748742400  MEOH      3431            0.0000000000
     51504      4123  MEOH      DO1            26.5618031040       18.7863269428       -9.0718061590  MEOH      3431            0.0000000000
     51505      4123  MEOH      HO1            27.3769286153       18.2617875790       -8.9529866809  MEOH      3431            0.0000000000
     51506      4123  MEOH      HO2            26.5106400092       19.6761602260       -8.6993051159  MEOH      3431            0.0000000000
     51507      4123  MEOH      H1A            25.4636893110       19.5086862993      -10.6823795135  MEOH      3431            0.0000000000
     51508      4123  MEOH      H1B            26.3367031666       17.9559119134      -10.9764943937  MEOH      3431            0.0000000000
     51509      4123  MEOH      H1C            27.2582165168       19.5131867304      -10.9082578540  MEOH      3431            0.0000000000
     51510      4123  MEOH      LP1A           26.7546391074       19.0497779773       -8.9444006089  MEOH      3431            0.0000000000
     51511      4123  MEOH      LP1B           26.4006126772       18.4959838075       -8.9673441046  MEOH      3431            0.0000000000
     51512      4124  MEOH      C1             -6.2274569787        8.6874606609       -7.4472289017  MEOH      3432            0.0000000000
     51513      4124  MEOH      DC1            -6.2252878278        8.6990735486       -7.4614229171  MEOH      3432            0.0000000000
     51514      4124  MEOH      O1             -6.5318846839       10.0166794163       -7.8436597747  MEOH      3432            0.0000000000
     51515      4124  MEOH      DO1            -6.5220280142       10.0209055032       -7.8468054504  MEOH      3432            0.0000000000
     51516      4124  MEOH      HO1            -7.0100552179       10.4398968936       -7.1134954727  MEOH      3432            0.0000000000
     51517      4124  MEOH      HO2            -5.7084870883       10.3870945584       -8.1982144561  MEOH      3432            0.0000000000
     51518      4124  MEOH      H1A            -5.8589013530        8.1011189758       -8.3159585376  MEOH      3432            0.0000000000
     51519      4124  MEOH      H1B            -7.1100805471        8.1631594357       -7.0224879664  MEOH      3432            0.0000000000
     51520      4124  MEOH      H1C            -5.4248090398        8.7392874281       -6.6808143453  MEOH      3432            0.0000000000
     51521      4124  MEOH      LP1A           -6.2697277904       10.2310114397       -7.7551411502  MEOH      3432            0.0000000000
     51522      4124  MEOH      LP1B           -6.8402102420       10.0246119011       -8.0091059167  MEOH      3432            0.0000000000
     51523      4125  MEOH      C1             23.3405426701      -21.2327240689       10.3206661060  MEOH      3433            0.0000000000
     51524      4125  MEOH      DC1            23.3339005354      -21.2186056129       10.3357825400  MEOH      3433            0.0000000000
     51525      4125  MEOH      O1             23.3558065818      -20.6715894606       11.6356850077  MEOH      3433            0.0000000000
     51526      4125  MEOH      DO1            23.3464313884      -20.6577218928       11.6470569157  MEOH      3433            0.0000000000
     51527      4125  MEOH      HO1            24.1862942598      -20.1768643860       11.7159179111  MEOH      3433            0.0000000000
     51528      4125  MEOH      HO2            22.4949615925      -20.2419352128       11.7591480863  MEOH      3433            0.0000000000
     51529      4125  MEOH      H1A            22.5003760314      -21.9532209660       10.2240988203  MEOH      3433            0.0000000000
     51530      4125  MEOH      H1B            24.2913124765      -21.7721302768       10.1221749995  MEOH      3433            0.0000000000
     51531      4125  MEOH      H1C            23.2246146410      -20.4293689114        9.5620475038  MEOH      3433            0.0000000000
     51532      4125  MEOH      LP1A           23.2021681638      -20.3571213562       11.6334382655  MEOH      3433            0.0000000000
     51533      4125  MEOH      LP1B           23.5017820826      -20.8968666980       11.8602764578  MEOH      3433            0.0000000000
     51534      4126  MEOH      C1             -2.1560580994       18.7255412055       11.4996314648  MEOH      3434            0.0000000000
     51535      4126  MEOH      DC1            -2.1665752601       18.7301452932       11.4999406429  MEOH      3434            0.0000000000
     51536      4126  MEOH      O1             -2.6171565468       17.7895389833       12.4734004751  MEOH      3434            0.0000000000
     51537      4126  MEOH      DO1            -2.6381545439       17.7959062758       12.4759402991  MEOH      3434            0.0000000000
     51538      4126  MEOH      HO1            -2.4111865499       18.1588997728       13.3463546369  MEOH      3434            0.0000000000
     51539      4126  MEOH      HO2            -3.5062452768       17.5118511222       12.2026410211  MEOH      3434            0.0000000000
     51540      4126  MEOH      H1A            -2.0617485898       18.2162511321       10.5167528672  MEOH      3434            0.0000000000
     51541      4126  MEOH      H1B            -1.1521832104       19.1030309835       11.7895584796  MEOH      3434            0.0000000000
     51542      4126  MEOH      H1C            -2.8609265949       19.5797700523       11.4114584332  MEOH      3434            0.0000000000
     51543      4126  MEOH      LP1A           -2.9502867858       17.8575383718       12.5564686825  MEOH      3434            0.0000000000
     51544      4126  MEOH      LP1B           -2.3650750694       17.5576193779       12.5452908458  MEOH      3434            0.0000000000
     51545      4127  MEOH      C1            -17.2755491182       15.7439057196      -25.7662441902  MEOH      3435            0.0000000000
     51546      4127  MEOH      DC1           -17.2776913534       15.7544602520      -25.7733642471  MEOH      3435            0.0000000000
     51547      4127  MEOH      O1            -15.9837590082       16.0177382279      -25.2200348978  MEOH      3435            0.0000000000
     51548      4127  MEOH      DO1           -15.9820202991       16.0324935621      -25.2173812376  MEOH      3435            0.0000000000
     51549      4127  MEOH      HO1           -15.6836211523       15.1773856453      -24.8397392175  MEOH      3435            0.0000000000
     51550      4127  MEOH      HO2           -15.4793698777       16.4312941343      -25.9379924997  MEOH      3435            0.0000000000
     51551      4127  MEOH      H1A           -17.7132375818       16.6730117684      -26.1899324705  MEOH      3435            0.0000000000
     51552      4127  MEOH      H1B           -17.9411703831       15.3565410750      -24.9654833238  MEOH      3435            0.0000000000
     51553      4127  MEOH      H1C           -17.1895951632       14.9784561017      -26.5668813119  MEOH      3435            0.0000000000
     51554      4127  MEOH      LP1A          -15.7374741230       15.9656330917      -25.4631990606  MEOH      3435            0.0000000000
     51555      4127  MEOH      LP1B          -16.0144654010       16.1266321418      -24.8888261525  MEOH      3435            0.0000000000
     51556      4128  MEOH      C1            -12.7600286887       30.5164981386       32.6918154628  MEOH      3436            0.0000000000
     51557      4128  MEOH      DC1           -12.7516340375       30.5174224694       32.6829261237  MEOH      3436            0.0000000000
     51558      4128  MEOH      O1            -12.5173010588       31.7256123527       33.4121514312  MEOH      3436            0.0000000000
     51559      4128  MEOH      DO1           -12.5155382700       31.7308540149       33.3957425076  MEOH      3436            0.0000000000
     51560      4128  MEOH      HO1           -13.2761102590       31.8677658174       33.9994341501  MEOH      3436            0.0000000000
     51561      4128  MEOH      HO2           -11.6283806815       31.6318469239       33.7888855644  MEOH      3436            0.0000000000
     51562      4128  MEOH      H1A           -11.9041755789       30.3006324884       32.0171018367  MEOH      3436            0.0000000000
     51563      4128  MEOH      H1B           -13.6854142114       30.6198982099       32.0857700354  MEOH      3436            0.0000000000
     51564      4128  MEOH      H1C           -12.8827616661       29.6751233632       33.4069001455  MEOH      3436            0.0000000000
     51565      4128  MEOH      LP1A          -12.3409123214       31.6562994892       33.7064008837  MEOH      3436            0.0000000000
     51566      4128  MEOH      LP1B          -12.6429915751       31.9988686601       33.2331741013  MEOH      3436            0.0000000000
     51567      4129  MEOH      C1             16.8548789371      -19.0414354208      -22.7759699457  MEOH      3437            0.0000000000
     51568      4129  MEOH      DC1            16.8529182200      -19.0485960585      -22.7590502671  MEOH      3437            0.0000000000
     51569      4129  MEOH      O1             15.5800935304      -18.7501206395      -23.3353070749  MEOH      3437            0.0000000000
     51570      4129  MEOH      DO1            15.5854497963      -18.7603196671      -23.3244176738  MEOH      3437            0.0000000000
     51571      4129  MEOH      HO1            15.5747699787      -17.8129394795      -23.5854333129  MEOH      3437            0.0000000000
     51572      4129  MEOH      HO2            15.4387602204      -19.4263059297      -24.0162610738  MEOH      3437            0.0000000000
     51573      4129  MEOH      H1A            16.8435530338      -20.0347461314      -22.2784495378  MEOH      3437            0.0000000000
     51574      4129  MEOH      H1B            17.1346498427      -18.2205941967      -22.0815140962  MEOH      3437            0.0000000000
     51575      4129  MEOH      H1C            17.6451006671      -19.0800069364      -23.5559589560  MEOH      3437            0.0000000000
     51576      4129  MEOH      LP1A           15.5841231249      -18.8100883767      -23.6801079346  MEOH      3437            0.0000000000
     51577      4129  MEOH      LP1B           15.3582535193      -18.6520070306      -23.0829962959  MEOH      3437            0.0000000000
     51578      4130  MEOH      C1            -19.3459286957       25.3394705493       12.8762426331  MEOH      3438            0.0000000000
     51579      4130  MEOH      DC1           -19.3398440632       25.3427863816       12.8886906954  MEOH      3438            0.0000000000
     51580      4130  MEOH      O1            -20.2829708098       24.2717896374       12.9890262007  MEOH      3438            0.0000000000
     51581      4130  MEOH      DO1           -20.2751738762       24.2706203802       12.9962282934  MEOH      3438            0.0000000000
     51582      4130  MEOH      HO1           -19.8211365981       23.4338537802       13.1486277674  MEOH      3438            0.0000000000
     51583      4130  MEOH      HO2           -21.0252896178       24.5851882456       13.5290670331  MEOH      3438            0.0000000000
     51584      4130  MEOH      H1A           -19.8642609825       26.2435328144       12.4911140036  MEOH      3438            0.0000000000
     51585      4130  MEOH      H1B           -18.5424262003       25.0651004336       12.1597052779  MEOH      3438            0.0000000000
     51586      4130  MEOH      H1C           -18.9113609010       25.5567116296       13.8753813349  MEOH      3438            0.0000000000
     51587      4130  MEOH      LP1A          -20.3852503732       24.2369479510       13.3219300123  MEOH      3438            0.0000000000
     51588      4130  MEOH      LP1B          -20.3467431264       24.1346446921       12.6733929394  MEOH      3438            0.0000000000
     51589      4131  MEOH      C1             11.0596384862      -29.8166418434       -9.0626411508  MEOH      3439            0.0000000000
     51590      4131  MEOH      DC1            11.0675573821      -29.7990155875       -9.0709622319  MEOH      3439            0.0000000000
     51591      4131  MEOH      O1             11.0838724284      -31.1676221538       -8.6044615447  MEOH      3439            0.0000000000
     51592      4131  MEOH      DO1            11.1099034463      -31.1575261430       -8.6084661631  MEOH      3439            0.0000000000
     51593      4131  MEOH      HO1            10.7200542197      -31.7309677324       -9.3053025187  MEOH      3439            0.0000000000
     51594      4131  MEOH      HO2            11.9613741928      -31.3177230291       -8.2192857657  MEOH      3439            0.0000000000
     51595      4131  MEOH      H1A            11.2273541015      -29.1321423830       -8.2037738961  MEOH      3439            0.0000000000
     51596      4131  MEOH      H1B            10.0810078992      -29.5875647850       -9.5360615536  MEOH      3439            0.0000000000
     51597      4131  MEOH      H1C            11.8721467145      -29.6709534579       -9.8062312760  MEOH      3439            0.0000000000
     51598      4131  MEOH      LP1A           11.3895001895      -31.3166796220       -8.6873683769  MEOH      3439            0.0000000000
     51599      4131  MEOH      LP1B           10.7869063599      -31.2418090044       -8.4347339236  MEOH      3439            0.0000000000
     51600      4132  MEOH      C1              7.7006159284      -15.8853151773       29.6428915149  MEOH      3440            0.0000000000
     51601      4132  MEOH      DC1             7.7006143104      -15.8845729117       29.6695221013  MEOH      3440            0.0000000000
     51602      4132  MEOH      O1              7.8653325015      -14.9744138633       30.7091460053  MEOH      3440            0.0000000000
     51603      4132  MEOH      DO1             7.8869510459      -14.9848929436       30.7364395783  MEOH      3440            0.0000000000
     51604      4132  MEOH      HO1             8.3894610949      -14.2551060289       30.3234188257  MEOH      3440            0.0000000000
     51605      4132  MEOH      HO2             6.9654226847      -14.7647247290       31.0042608806  MEOH      3440            0.0000000000
     51606      4132  MEOH      H1A             6.9975849678      -16.6948858091       29.9338620643  MEOH      3440            0.0000000000
     51607      4132  MEOH      H1B             8.6867089434      -16.3214570527       29.3750821933  MEOH      3440            0.0000000000
     51608      4132  MEOH      H1C             7.2854383582      -15.3464975939       28.7644700913  MEOH      3440            0.0000000000
     51609      4132  MEOH      LP1A            7.5996023698      -14.7466809726       30.7141687116  MEOH      3440            0.0000000000
     51610      4132  MEOH      LP1B            8.1529323288      -15.0546301152       30.8917704621  MEOH      3440            0.0000000000
     51611      4133  MEOH      C1            -15.3759456010       22.3806902005      -35.4282491422  MEOH      3441            0.0000000000
     51612      4133  MEOH      DC1           -15.3575914045       22.3838253999      -35.4353608867  MEOH      3441            0.0000000000
     51613      4133  MEOH      O1            -14.8451812589       21.8374168477      -36.6325357794  MEOH      3441            0.0000000000
     51614      4133  MEOH      DO1           -14.8175582546       21.8316438997      -36.6291855525  MEOH      3441            0.0000000000
     51615      4133  MEOH      HO1           -15.4323573326       21.1052903871      -36.8777195964  MEOH      3441            0.0000000000
     51616      4133  MEOH      HO2           -14.7767065220       22.5961270651      -37.2330106066  MEOH      3441            0.0000000000
     51617      4133  MEOH      H1A           -14.8649223243       23.3283579539      -35.1542016247  MEOH      3441            0.0000000000
     51618      4133  MEOH      H1B           -15.2505886155       21.6545855733      -34.5967572918  MEOH      3441            0.0000000000
     51619      4133  MEOH      H1C           -16.4538220388       22.5935396073      -35.5931688646  MEOH      3441            0.0000000000
     51620      4133  MEOH      LP1A          -14.9817563217       22.0030415010      -36.9089697253  MEOH      3441            0.0000000000
     51621      4133  MEOH      LP1B          -14.6108965366       21.5881956952      -36.5583772595  MEOH      3441            0.0000000000
     51622      4134  MEOH      C1            -23.1167763870        0.0997381268       -6.1473248002  MEOH      3442            0.0000000000
     51623      4134  MEOH      DC1           -23.1154955028        0.0843004495       -6.1307235938  MEOH      3442            0.0000000000
     51624      4134  MEOH      O1            -22.5092354296        1.2583519460       -6.7108522128  MEOH      3442            0.0000000000
     51625      4134  MEOH      DO1           -22.5033430122        1.2465813235       -6.6905869840  MEOH      3442            0.0000000000
     51626      4134  MEOH      HO1           -22.5784339051        2.0024823807       -6.0924822037  MEOH      3442            0.0000000000
     51627      4134  MEOH      HO2           -21.6801196605        0.9829510664       -7.1323037485  MEOH      3442            0.0000000000
     51628      4134  MEOH      H1A           -23.3011190873       -0.6218862198       -6.9717015777  MEOH      3442            0.0000000000
     51629      4134  MEOH      H1B           -24.0803355318        0.3615782137       -5.6601753930  MEOH      3442            0.0000000000
     51630      4134  MEOH      H1C           -22.4286464953       -0.3788565583       -5.4181160646  MEOH      3442            0.0000000000
     51631      4134  MEOH      LP1A          -22.1692677574        1.2674783563       -6.6281558376  MEOH      3442            0.0000000000
     51632      4134  MEOH      LP1B          -22.7444412730        1.4379809199       -6.8976987888  MEOH      3442            0.0000000000
     51633      4135  MEOH      C1             28.1931857818      -14.4823326723       16.7786247485  MEOH      3443            0.0000000000
     51634      4135  MEOH      DC1            28.1949799806      -14.4888740776       16.7757141992  MEOH      3443            0.0000000000
     51635      4135  MEOH      O1             28.9292428788      -15.7058854366       16.7680963380  MEOH      3443            0.0000000000
     51636      4135  MEOH      DO1            28.9265811009      -15.7079766035       16.7642297629  MEOH      3443            0.0000000000
     51637      4135  MEOH      HO1            29.0248847585      -16.0092197752       17.6844701212  MEOH      3443            0.0000000000
     51638      4135  MEOH      HO2            28.5123217001      -16.2685948683       16.0969519226  MEOH      3443            0.0000000000
     51639      4135  MEOH      H1A            28.2188502952      -14.0230025179       15.7673492459  MEOH      3443            0.0000000000
     51640      4135  MEOH      H1B            28.6442966398      -13.7756341364       17.5075946891  MEOH      3443            0.0000000000
     51641      4135  MEOH      H1C            27.1374456327      -14.6693681713       17.0697457889  MEOH      3443            0.0000000000
     51642      4135  MEOH      LP1A           28.7103588081      -15.9769770748       16.7349438523  MEOH      3443            0.0000000000
     51643      4135  MEOH      LP1B           29.2722891544      -15.6393914812       16.7880414300  MEOH      3443            0.0000000000
     51644      4136  MEOH      C1              5.0442120676       34.4540624563       29.3735495423  MEOH      3444            0.0000000000
     51645      4136  MEOH      DC1             5.0343613384       34.4477108926       29.3815942738  MEOH      3444            0.0000000000
     51646      4136  MEOH      O1              6.3674008364       34.9700545665       29.2099470178  MEOH      3444            0.0000000000
     51647      4136  MEOH      DO1             6.3559564008       34.9659440013       29.2210647288  MEOH      3444            0.0000000000
     51648      4136  MEOH      HO1             6.6199648557       34.8952303161       28.2763985468  MEOH      3444            0.0000000000
     51649      4136  MEOH      HO2             6.3677907192       35.8402916626       29.6384178402  MEOH      3444            0.0000000000
     51650      4136  MEOH      H1A             4.7936498870       34.4460085987       30.4558964040  MEOH      3444            0.0000000000
     51651      4136  MEOH      H1B             4.9907649469       33.4158656369       28.9816161673  MEOH      3444            0.0000000000
     51652      4136  MEOH      H1C             4.3090451792       35.0914084013       28.8372280033  MEOH      3444            0.0000000000
     51653      4136  MEOH      LP1A            6.3546534521       35.3136245807       29.1443943710  MEOH      3444            0.0000000000
     51654      4136  MEOH      LP1B            6.6022082217       34.7152468746       29.2593285113  MEOH      3444            0.0000000000
     51655      4137  MEOH      C1              8.0864177798      -23.3649576438       18.8658010945  MEOH      3445            0.0000000000
     51656      4137  MEOH      DC1             8.0888741978      -23.3748631895       18.8638561296  MEOH      3445            0.0000000000
     51657      4137  MEOH      O1              7.0524705485      -22.3967948223       18.8045829604  MEOH      3445            0.0000000000
     51658      4137  MEOH      DO1             7.0596641030      -22.4032352312       18.7922836511  MEOH      3445            0.0000000000
     51659      4137  MEOH      HO1             7.3024810342      -21.6241879707       19.3351236379  MEOH      3445            0.0000000000
     51660      4137  MEOH      HO2             6.7680415023      -22.3241610440       17.8800698713  MEOH      3445            0.0000000000
     51661      4137  MEOH      H1A             7.6589076386      -24.3292066110       18.5168311696  MEOH      3445            0.0000000000
     51662      4137  MEOH      H1B             8.4461916340      -23.4860214704       19.9099406091  MEOH      3445            0.0000000000
     51663      4137  MEOH      H1C             8.9255676239      -23.0666565840       18.2015985518  MEOH      3445            0.0000000000
     51664      4137  MEOH      LP1A            7.1043413254      -22.1833275422       18.5321106814  MEOH      3445            0.0000000000
     51665      4137  MEOH      LP1B            6.8199162128      -22.4537068089       19.0598857351  MEOH      3445            0.0000000000
     51666      4138  MEOH      C1            -27.2595707939       30.5331349437       15.4705536357  MEOH      3446            0.0000000000
     51667      4138  MEOH      DC1           -27.2459686714       30.5380307871       15.4676260870  MEOH      3446            0.0000000000
     51668      4138  MEOH      O1            -28.4090774247       30.0535565182       14.7964551631  MEOH      3446            0.0000000000
     51669      4138  MEOH      DO1           -28.3988629014       30.0565220986       14.7960132368  MEOH      3446            0.0000000000
     51670      4138  MEOH      HO1           -28.9434601281       29.5586799332       15.4371050611  MEOH      3446            0.0000000000
     51671      4138  MEOH      HO2           -28.7920337212       30.8270976722       14.3538734661  MEOH      3446            0.0000000000
     51672      4138  MEOH      H1A           -26.6581389194       31.1622466352       14.7800326861  MEOH      3446            0.0000000000
     51673      4138  MEOH      H1B           -26.6448779148       29.6818919809       15.8336776961  MEOH      3446            0.0000000000
     51674      4138  MEOH      H1C           -27.5967527075       31.1442901375       16.3349139115  MEOH      3446            0.0000000000
     51675      4138  MEOH      LP1A          -28.6655157546       30.2911673738       14.8132022299  MEOH      3446            0.0000000000
     51676      4138  MEOH      LP1B          -28.3433084444       29.7397776270       14.6560370422  MEOH      3446            0.0000000000
     51677      4139  MEOH      C1             27.7201032496       28.6830631777       -9.7500776542  MEOH      3447            0.0000000000
     51678      4139  MEOH      DC1            27.7236229324       28.6772498534       -9.7470254805  MEOH      3447            0.0000000000
     51679      4139  MEOH      O1             28.8646809992       27.8309555495       -9.7896098298  MEOH      3447            0.0000000000
     51680      4139  MEOH      DO1            28.8696569429       27.8252711772       -9.7891346994  MEOH      3447            0.0000000000
     51681      4139  MEOH      HO1            29.0644822437       27.6722231591      -10.7254428763  MEOH      3447            0.0000000000
     51682      4139  MEOH      HO2            29.5251489671       28.2546124249       -9.2193494362  MEOH      3447            0.0000000000
     51683      4139  MEOH      H1A            27.3916206197       28.8298018528       -8.6989411619  MEOH      3447            0.0000000000
     51684      4139  MEOH      H1B            26.8979974030       28.2278281035      -10.3427192025  MEOH      3447            0.0000000000
     51685      4139  MEOH      H1C            27.9673138750       29.6749512354      -10.1852396787  MEOH      3447            0.0000000000
     51686      4139  MEOH      LP1A           29.1571218530       28.0232526532       -9.7900232549  MEOH      3447            0.0000000000
     51687      4139  MEOH      LP1B           28.7645201506       27.4956345766       -9.7843515491  MEOH      3447            0.0000000000
     51688      4140  MEOH      C1              5.5974921970       27.8338253056      -36.9081068323  MEOH      3448            0.0000000000
     51689      4140  MEOH      DC1             5.6043562021       27.8428583638      -36.8968387071  MEOH      3448            0.0000000000
     51690      4140  MEOH      O1              5.2955212573       27.7801498589      -35.5097513128  MEOH      3448            0.0000000000
     51691      4140  MEOH      DO1             5.2976932775       27.7981456547      -35.5025581978  MEOH      3448            0.0000000000
     51692      4140  MEOH      HO1             4.9038518614       28.6315491098      -35.2595226179  MEOH      3448            0.0000000000
     51693      4140  MEOH      HO2             4.7826764138       26.9657681592      -35.3886207451  MEOH      3448            0.0000000000
     51694      4140  MEOH      H1A             6.0337430179       26.8645862763      -37.2314981215  MEOH      3448            0.0000000000
     51695      4140  MEOH      H1B             6.3159090966       28.6535308442      -37.1232369981  MEOH      3448            0.0000000000
     51696      4140  MEOH      H1C             4.6670374514       27.9958011372      -37.4932040869  MEOH      3448            0.0000000000
     51697      4140  MEOH      LP1A            4.9730151260       27.6529359703      -35.4617260925  MEOH      3448            0.0000000000
     51698      4140  MEOH      LP1B            5.5716197143       27.8876720960      -35.3234488420  MEOH      3448            0.0000000000
     51699      4141  MEOH      C1             12.0767501581       17.2509375968      -27.1889604392  MEOH      3449            0.0000000000
     51700      4141  MEOH      DC1            12.0628811081       17.2576767772      -27.1855845187  MEOH      3449            0.0000000000
     51701      4141  MEOH      O1             10.8890849079       16.6302985647      -27.6867857011  MEOH      3449            0.0000000000
     51702      4141  MEOH      DO1            10.8788181302       16.6399255010      -27.6811271181  MEOH      3449            0.0000000000
     51703      4141  MEOH      HO1            10.6529679555       15.9112149031      -27.0801000557  MEOH      3449            0.0000000000
     51704      4141  MEOH      HO2            10.2699334605       17.3436018324      -27.9075795752  MEOH      3449            0.0000000000
     51705      4141  MEOH      H1A            12.5041309524       17.9233313125      -27.9632687424  MEOH      3449            0.0000000000
     51706      4141  MEOH      H1B            12.8338443268       16.4758213070      -26.9433506733  MEOH      3449            0.0000000000
     51707      4141  MEOH      H1C            11.8536284249       17.8363621287      -26.2714552287  MEOH      3449            0.0000000000
     51708      4141  MEOH      LP1A           10.6065832019       16.7907797302      -27.5566373949  MEOH      3449            0.0000000000
     51709      4141  MEOH      LP1B           10.9725470928       16.3732111365      -27.9091370401  MEOH      3449            0.0000000000
     51710      4142  MEOH      C1            -23.4559990982       21.6915106994      -12.2176515374  MEOH      3450            0.0000000000
     51711      4142  MEOH      DC1           -23.4607188609       21.6992072956      -12.2176453528  MEOH      3450            0.0000000000
     51712      4142  MEOH      O1            -22.9999554780       22.2095345528      -13.4672871365  MEOH      3450            0.0000000000
     51713      4142  MEOH      DO1           -22.9978925266       22.2088586438      -13.4687530550  MEOH      3450            0.0000000000
     51714      4142  MEOH      HO1           -22.0442663597       22.0499126344      -13.5128848599  MEOH      3450            0.0000000000
     51715      4142  MEOH      HO2           -23.5935900365       21.8385587706      -14.1387593857  MEOH      3450            0.0000000000
     51716      4142  MEOH      H1A           -24.5211767005       21.9650347057      -12.0598469309  MEOH      3450            0.0000000000
     51717      4142  MEOH      H1B           -22.8425916865       22.1034084310      -11.3879572527  MEOH      3450            0.0000000000
     51718      4142  MEOH      H1C           -23.3804586899       20.5830937956      -12.2228105443  MEOH      3450            0.0000000000
     51719      4142  MEOH      LP1A          -23.0225340820       21.9628444834      -13.7145404809  MEOH      3450            0.0000000000
     51720      4142  MEOH      LP1B          -22.9115988300       22.5463716205      -13.4321603293  MEOH      3450            0.0000000000
     51721      4143  MEOH      C1             31.4783745855       29.5879173589      -11.6862927842  MEOH      3451            0.0000000000
     51722      4143  MEOH      DC1            31.4694818831       29.5850073205      -11.6818061818  MEOH      3451            0.0000000000
     51723      4143  MEOH      O1             32.0950603980       28.4765570557      -12.3281835357  MEOH      3451            0.0000000000
     51724      4143  MEOH      DO1            32.0825532372       28.4712669666      -12.3230020961  MEOH      3451            0.0000000000
     51725      4143  MEOH      HO1            32.8580826402       28.2150558371      -11.7893754322  MEOH      3451            0.0000000000
     51726      4143  MEOH      HO2            31.3818746890       27.8517863705      -12.5329461671  MEOH      3451            0.0000000000
     51727      4143  MEOH      H1A            30.7410220589       30.0518337376      -12.3757953924  MEOH      3451            0.0000000000
     51728      4143  MEOH      H1B            32.2347092847       30.3609772117      -11.4320148113  MEOH      3451            0.0000000000
     51729      4143  MEOH      H1C            30.9601055508       29.2507307275      -10.7632416571  MEOH      3451            0.0000000000
     51730      4143  MEOH      LP1A           31.9515621904       28.1781141432      -12.2148694043  MEOH      3451            0.0000000000
     51731      4143  MEOH      LP1B           32.3343481425       28.5885541461      -12.5577440442  MEOH      3451            0.0000000000
     51732      4144  MEOH      C1             11.6090990533       22.7568787526      -22.6695461757  MEOH      3452            0.0000000000
     51733      4144  MEOH      DC1            11.6239315661       22.7393876200      -22.6769380002  MEOH      3452            0.0000000000
     51734      4144  MEOH      O1             12.6401459878       21.8642341313      -23.0966795521  MEOH      3452            0.0000000000
     51735      4144  MEOH      DO1            12.6383180008       21.8390643599      -23.1258208801  MEOH      3452            0.0000000000
     51736      4144  MEOH      HO1            13.4604456292       22.2406635507      -22.7412792254  MEOH      3452            0.0000000000
     51737      4144  MEOH      HO2            12.3532048280       20.9807223800      -22.8174453204  MEOH      3452            0.0000000000
     51738      4144  MEOH      H1A            10.6292035242       22.4217701224      -23.0718246339  MEOH      3452            0.0000000000
     51739      4144  MEOH      H1B            11.7989662680       23.7919135794      -23.0258807805  MEOH      3452            0.0000000000
     51740      4144  MEOH      H1C            11.5633176371       22.7746471754      -21.5596320589  MEOH      3452            0.0000000000
     51741      4144  MEOH      LP1A           12.6841743776       21.6101859848      -22.8599919095  MEOH      3452            0.0000000000
     51742      4144  MEOH      LP1B           12.7610119147       21.9622109917      -23.4101950422  MEOH      3452            0.0000000000
     51743      4145  MEOH      C1             -7.4526388436      -21.5120038810      -33.4103167738  MEOH      3453            0.0000000000
     51744      4145  MEOH      DC1            -7.4367184104      -21.5471559408      -33.4043431476  MEOH      3453            0.0000000000
     51745      4145  MEOH      O1             -8.3809556531      -20.4530901622      -33.1872338924  MEOH      3453            0.0000000000
     51746      4145  MEOH      DO1            -8.3805743962      -20.4936691958      -33.1698155773  MEOH      3453            0.0000000000
     51747      4145  MEOH      HO1            -7.8939617141      -19.6203982200      -33.2890230547  MEOH      3453            0.0000000000
     51748      4145  MEOH      HO2            -9.0906614355      -20.6048709257      -33.8308023054  MEOH      3453            0.0000000000
     51749      4145  MEOH      H1A            -8.0129453029      -22.4522858240      -33.6007046395  MEOH      3453            0.0000000000
     51750      4145  MEOH      H1B            -6.8007050618      -21.6360713479      -32.5193001584  MEOH      3453            0.0000000000
     51751      4145  MEOH      H1C            -6.8285874999      -21.2627044113      -34.2950374615  MEOH      3453            0.0000000000
     51752      4145  MEOH      LP1A           -8.5360931822      -20.3645080171      -33.4882082279  MEOH      3453            0.0000000000
     51753      4145  MEOH      LP1B           -8.3900315494      -20.3715474610      -32.8469863120  MEOH      3453            0.0000000000
     51754      4146  MEOH      C1             16.8951378528      -33.4874553264       12.9994999519  MEOH      3454            0.0000000000
     51755      4146  MEOH      DC1            16.8903076694      -33.4811409459       12.9991822437  MEOH      3454            0.0000000000
     51756      4146  MEOH      O1             15.6980585913      -34.0667131433       13.5188011902  MEOH      3454            0.0000000000
     51757      4146  MEOH      DO1            15.6887194208      -34.0534359167       13.5242980767  MEOH      3454            0.0000000000
     51758      4146  MEOH      HO1            15.0562134896      -34.0870632645       12.7918068725  MEOH      3454            0.0000000000
     51759      4146  MEOH      HO2            15.9678758505      -34.9081375219       13.9189307483  MEOH      3454            0.0000000000
     51760      4146  MEOH      H1A            17.6898427598      -33.5179291026       13.7752811464  MEOH      3454            0.0000000000
     51761      4146  MEOH      H1B            16.7164478427      -32.4305524176       12.7073576541  MEOH      3454            0.0000000000
     51762      4146  MEOH      H1C            17.2343594885      -34.0706635223       12.1168234075  MEOH      3454            0.0000000000
     51763      4146  MEOH      LP1A           15.7073280456      -34.4145692503       13.4812484797  MEOH      3454            0.0000000000
     51764      4146  MEOH      LP1B           15.4930570402      -33.8171603236       13.6537002420  MEOH      3454            0.0000000000
     51765      4147  MEOH      C1            -14.1063090328      -33.6839336689      -10.3562085579  MEOH      3455            0.0000000000
     51766      4147  MEOH      DC1           -14.1191842017      -33.6630434749      -10.3524051321  MEOH      3455            0.0000000000
     51767      4147  MEOH      O1            -15.4166422479      -33.5851342220      -10.9082875733  MEOH      3455            0.0000000000
     51768      4147  MEOH      DO1           -15.4216795529      -33.5634956220      -10.9111498169  MEOH      3455            0.0000000000
     51769      4147  MEOH      HO1           -15.8153709309      -32.7480628179      -10.6232842357  MEOH      3455            0.0000000000
     51770      4147  MEOH      HO2           -15.3170653641      -33.8045650460      -11.8478803350  MEOH      3455            0.0000000000
     51771      4147  MEOH      H1A           -13.7154905871      -34.6831286096      -10.6446377744  MEOH      3455            0.0000000000
     51772      4147  MEOH      H1B           -14.1247224141      -33.6175496964       -9.2473464758  MEOH      3455            0.0000000000
     51773      4147  MEOH      H1C           -13.4294478527      -32.9047615899      -10.7673907738  MEOH      3455            0.0000000000
     51774      4147  MEOH      LP1A          -15.4027443753      -33.4327072219      -11.2230459867  MEOH      3455            0.0000000000
     51775      4147  MEOH      LP1B          -15.6492657065      -33.7311644259      -10.6913509327  MEOH      3455            0.0000000000
     51776      4148  MEOH      C1             15.9748005413      -15.4105019076       11.8145483779  MEOH      3456            0.0000000000
     51777      4148  MEOH      DC1            15.9855064700      -15.3902242415       11.7917583771  MEOH      3456            0.0000000000
     51778      4148  MEOH      O1             16.7431340278      -14.4037489315       11.1600110364  MEOH      3456            0.0000000000
     51779      4148  MEOH      DO1            16.7498914584      -14.3902849546       11.1272139290  MEOH      3456            0.0000000000
     51780      4148  MEOH      HO1            17.4560137229      -14.2205563915       11.7917887137  MEOH      3456            0.0000000000
     51781      4148  MEOH      HO2            16.9368812959      -14.7584599945       10.2782275828  MEOH      3456            0.0000000000
     51782      4148  MEOH      H1A            15.0246746463      -15.6129842051       11.2754911424  MEOH      3456            0.0000000000
     51783      4148  MEOH      H1B            15.7148004511      -15.1037947463       12.8502373612  MEOH      3456            0.0000000000
     51784      4148  MEOH      H1C            16.5663761113      -16.3486165894       11.8801242147  MEOH      3456            0.0000000000
     51785      4148  MEOH      LP1A           16.9887888407      -14.5520224649       10.9595897995  MEOH      3456            0.0000000000
     51786      4148  MEOH      LP1B           16.6193082945      -14.0867092353       11.2415770763  MEOH      3456            0.0000000000
     51787      4149  MEOH      C1              9.1045644145       23.6310629196       14.1407491673  MEOH      3457            0.0000000000
     51788      4149  MEOH      DC1             9.1158826181       23.6309568211       14.1522487075  MEOH      3457            0.0000000000
     51789      4149  MEOH      O1              8.1103979866       23.4518878558       15.1479943724  MEOH      3457            0.0000000000
     51790      4149  MEOH      DO1             8.1080331651       23.4471514173       15.1482973500  MEOH      3457            0.0000000000
     51791      4149  MEOH      HO1             7.6128750823       24.2837186943       15.1857887741  MEOH      3457            0.0000000000
     51792      4149  MEOH      HO2             7.6641439154       22.6150146368       14.9445231969  MEOH      3457            0.0000000000
     51793      4149  MEOH      H1A             9.7401164708       22.7225003810       14.0706870649  MEOH      3457            0.0000000000
     51794      4149  MEOH      H1B             9.7361546334       24.5145573299       14.3749551076  MEOH      3457            0.0000000000
     51795      4149  MEOH      H1C             8.6048813411       23.8030036013       13.1634701744  MEOH      3457            0.0000000000
     51796      4149  MEOH      LP1A            7.8199694338       23.3168642695       15.0068565430  MEOH      3457            0.0000000000
     51797      4149  MEOH      LP1B            8.2377967152       23.5461782694       15.4600502678  MEOH      3457            0.0000000000
     51798      4150  MEOH      C1            -31.7633436834      -14.2517278591       15.8556230220  MEOH      3458            0.0000000000
     51799      4150  MEOH      DC1           -31.7696975438      -14.2531180788       15.8479311365  MEOH      3458            0.0000000000
     51800      4150  MEOH      O1            -31.6474689783      -13.0151445064       16.5561134507  MEOH      3458            0.0000000000
     51801      4150  MEOH      DO1           -31.6511274035      -13.0087543935       16.5471556737  MEOH      3458            0.0000000000
     51802      4150  MEOH      HO1           -31.1963359742      -13.2237355200       17.3891013268  MEOH      3458            0.0000000000
     51803      4150  MEOH      HO2           -31.2856013682      -12.3760346476       15.9224807324  MEOH      3458            0.0000000000
     51804      4150  MEOH      H1A           -32.4453544479      -14.1375177080       14.9860608562  MEOH      3458            0.0000000000
     51805      4150  MEOH      H1B           -32.1608421648      -15.0232152735       16.5492534183  MEOH      3458            0.0000000000
     51806      4150  MEOH      H1C           -30.7646347874      -14.5861462779       15.5019764993  MEOH      3458            0.0000000000
     51807      4150  MEOH      LP1A          -31.3496920863      -12.8543883191       16.4667469535  MEOH      3458            0.0000000000
     51808      4150  MEOH      LP1B          -31.9310756893      -12.9628833382       16.7544465134  MEOH      3458            0.0000000000
     51809      4151  MEOH      C1            -28.4055143850       -5.9056329968       25.3619333674  MEOH      3459            0.0000000000
     51810      4151  MEOH      DC1           -28.4033434582       -5.9048154241       25.3547613336  MEOH      3459            0.0000000000
     51811      4151  MEOH      O1            -28.6737943881       -4.6862340345       24.6770070871  MEOH      3459            0.0000000000
     51812      4151  MEOH      DO1           -28.6820766439       -4.6817679649       24.6789602423  MEOH      3459            0.0000000000
     51813      4151  MEOH      HO1           -27.8561519335       -4.1653956754       24.7099952687  MEOH      3459            0.0000000000
     51814      4151  MEOH      HO2           -29.0346284820       -4.9513750672       23.8165426830  MEOH      3459            0.0000000000
     51815      4151  MEOH      H1A           -29.3276370383       -6.5245341127       25.3931138359  MEOH      3459            0.0000000000
     51816      4151  MEOH      H1B           -28.0802427407       -5.6904550216       26.4022303425  MEOH      3459            0.0000000000
     51817      4151  MEOH      H1C           -27.6066077607       -6.4673422112       24.8322618035  MEOH      3459            0.0000000000
     51818      4151  MEOH      LP1A          -28.6031379147       -4.7223598500       24.3361220798  MEOH      3459            0.0000000000
     51819      4151  MEOH      LP1B          -28.8002897068       -4.4486178117       24.9006976435  MEOH      3459            0.0000000000
     51820      4152  MEOH      C1             36.4319830061       25.5631851148       34.8141609345  MEOH      3460            0.0000000000
     51821      4152  MEOH      DC1            36.4609710593       25.5658484843       34.7975865834  MEOH      3460            0.0000000000
     51822      4152  MEOH      O1             36.6241577426       24.2840362093       35.4136897456  MEOH      3460            0.0000000000
     51823      4152  MEOH      DO1            36.6639287221       24.2793369484       35.3975686498  MEOH      3460            0.0000000000
     51824      4152  MEOH      HO1            36.3676345482       23.5794523826       34.7983382348  MEOH      3460            0.0000000000
     51825      4152  MEOH      HO2            37.4047692070       24.3071925555       35.9890240194  MEOH      3460            0.0000000000
     51826      4152  MEOH      H1A            36.3437392693       26.3363414728       35.6071068905  MEOH      3460            0.0000000000
     51827      4152  MEOH      H1B            35.5010233924       25.5666033999       34.2078412874  MEOH      3460            0.0000000000
     51828      4152  MEOH      H1C            37.2928202426       25.7898859778       34.1494151398  MEOH      3460            0.0000000000
     51829      4152  MEOH      LP1A           36.9491522893       24.1701445032       35.3511819547  MEOH      3460            0.0000000000
     51830      4152  MEOH      LP1B           36.3352517363       24.1881817203       35.5864474849  MEOH      3460            0.0000000000
     51831      4153  MEOH      C1            -34.8960186131       20.3211938089      -24.2712910691  MEOH      3461            0.0000000000
     51832      4153  MEOH      DC1           -34.8904093448       20.3201019760      -24.2708267524  MEOH      3461            0.0000000000
     51833      4153  MEOH      O1            -33.6598328767       20.7623978442      -24.8342481357  MEOH      3461            0.0000000000
     51834      4153  MEOH      DO1           -33.6607486281       20.7619540737      -24.8396990273  MEOH      3461            0.0000000000
     51835      4153  MEOH      HO1           -33.2023889312       21.3017045160      -24.1703254365  MEOH      3461            0.0000000000
     51836      4153  MEOH      HO2           -33.2330649174       19.9701525786      -25.1963483286  MEOH      3461            0.0000000000
     51837      4153  MEOH      H1A           -35.4867828496       19.7855412975      -25.0448510244  MEOH      3461            0.0000000000
     51838      4153  MEOH      H1B           -35.4871706601       21.1947718305      -23.9224047015  MEOH      3461            0.0000000000
     51839      4153  MEOH      H1C           -34.7063793456       19.6340407404      -23.4191299276  MEOH      3461            0.0000000000
     51840      4153  MEOH      LP1A          -33.4085010941       20.5273768566      -24.7702366488  MEOH      3461            0.0000000000
     51841      4153  MEOH      LP1B          -33.7063905865       21.0658229537      -25.0023718478  MEOH      3461            0.0000000000
     51842      4154  MEOH      C1             23.8014674811      -12.9806478663        9.8213435651  MEOH      3462            0.0000000000
     51843      4154  MEOH      DC1            23.8068050843      -12.9579922068        9.8207908217  MEOH      3462            0.0000000000
     51844      4154  MEOH      O1             23.6028734253      -11.5903102349        9.5769694274  MEOH      3462            0.0000000000
     51845      4154  MEOH      DO1            23.5888074272      -11.5717819757        9.5635995161  MEOH      3462            0.0000000000
     51846      4154  MEOH      HO1            23.2150033236      -11.2497357868       10.3982281135  MEOH      3462            0.0000000000
     51847      4154  MEOH      HO2            24.4593435753      -11.2483445336        9.2762729990  MEOH      3462            0.0000000000
     51848      4154  MEOH      H1A            24.2664313445      -13.4583346038        8.9325550713  MEOH      3462            0.0000000000
     51849      4154  MEOH      H1B            22.8326495249      -13.4837230527       10.0278093645  MEOH      3462            0.0000000000
     51850      4154  MEOH      H1C            24.4645538740      -13.1108781475       10.7032038204  MEOH      3462            0.0000000000
     51851      4154  MEOH      LP1A           23.8894894999      -11.4107895131        9.6671000892  MEOH      3462            0.0000000000
     51852      4154  MEOH      LP1B           23.2872310686      -11.5375691185        9.4352363073  MEOH      3462            0.0000000000
     51853      4155  MEOH      C1             -8.9661402925       14.7865432686        3.7808212079  MEOH      3463            0.0000000000
     51854      4155  MEOH      DC1            -8.9666576030       14.7981122971        3.7828383356  MEOH      3463            0.0000000000
     51855      4155  MEOH      O1             -9.9892213434       14.7484954957        2.7880761588  MEOH      3463            0.0000000000
     51856      4155  MEOH      DO1            -9.9909034553       14.7633696365        2.7903745616  MEOH      3463            0.0000000000
     51857      4155  MEOH      HO1           -10.5149553127       13.9489387269        2.9468614452  MEOH      3463            0.0000000000
     51858      4155  MEOH      HO2           -10.4005652714       15.6268316403        2.7731835005  MEOH      3463            0.0000000000
     51859      4155  MEOH      H1A            -8.2000712080       15.5344434568        3.4839972391  MEOH      3463            0.0000000000
     51860      4155  MEOH      H1B            -8.4706538536       13.7952595791        3.8593758800  MEOH      3463            0.0000000000
     51861      4155  MEOH      H1C            -9.3978639377       15.0711870442        4.7641388653  MEOH      3463            0.0000000000
     51862      4155  MEOH      LP1A          -10.2722304886       14.9205811059        2.9011795032  MEOH      3463            0.0000000000
     51863      4155  MEOH      LP1B           -9.8740151623       14.5798365487        2.5038549502  MEOH      3463            0.0000000000
     51864      4156  MEOH      C1            -14.8496321865      -15.7225313688      -27.7909793945  MEOH      3464            0.0000000000
     51865      4156  MEOH      DC1           -14.8564687436      -15.7227694896      -27.8073116545  MEOH      3464            0.0000000000
     51866      4156  MEOH      O1            -16.1282255417      -15.9765789256      -28.3790558212  MEOH      3464            0.0000000000
     51867      4156  MEOH      DO1           -16.1295999361      -15.9801000694      -28.3919369274  MEOH      3464            0.0000000000
     51868      4156  MEOH      HO1           -16.6989130920      -16.2925327038      -27.6611498868  MEOH      3464            0.0000000000
     51869      4156  MEOH      HO2           -16.3665845724      -15.1605088350      -28.8460832077  MEOH      3464            0.0000000000
     51870      4156  MEOH      H1A           -14.1197154359      -15.4261789071      -28.5743807974  MEOH      3464            0.0000000000
     51871      4156  MEOH      H1B           -14.4683306607      -16.6326172692      -27.2804171544  MEOH      3464            0.0000000000
     51872      4156  MEOH      H1C           -14.9328894942      -14.8981820928      -27.0508189445  MEOH      3464            0.0000000000
     51873      4156  MEOH      LP1A          -16.3241324443      -15.6867028000      -28.3694476307  MEOH      3464            0.0000000000
     51874      4156  MEOH      LP1B          -16.1423231219      -16.3056846230      -28.4973381028  MEOH      3464            0.0000000000
     51875      4157  MEOH      C1             33.2013084932      -12.8779780825       22.4092547928  MEOH      3465            0.0000000000
     51876      4157  MEOH      DC1            33.2028638149      -12.8870701242       22.4089018921  MEOH      3465            0.0000000000
     51877      4157  MEOH      O1             34.0653655311      -13.8733217871       22.9733660106  MEOH      3465            0.0000000000
     51878      4157  MEOH      DO1            34.0568409506      -13.8854690024       22.9737736753  MEOH      3465            0.0000000000
     51879      4157  MEOH      HO1            34.5781679890      -14.2603269418       22.2466193908  MEOH      3465            0.0000000000
     51880      4157  MEOH      HO2            34.5453363322      -13.4274315279       23.6887050269  MEOH      3465            0.0000000000
     51881      4157  MEOH      H1A            32.5786302393      -12.4224061024       23.2086589234  MEOH      3465            0.0000000000
     51882      4157  MEOH      H1B            32.5539798305      -13.3243488728       21.6243728144  MEOH      3465            0.0000000000
     51883      4157  MEOH      H1C            33.7684914139      -12.0680309785       21.9026876947  MEOH      3465            0.0000000000
     51884      4157  MEOH      LP1A           34.3688995517      -13.7278642823       23.0693306532  MEOH      3465            0.0000000000
     51885      4157  MEOH      LP1B           33.9019381696      -14.1827020843       22.9820452516  MEOH      3465            0.0000000000
     51886      4158  MEOH      C1             21.1788863337       24.5903655952       -8.2556432321  MEOH      3466            0.0000000000
     51887      4158  MEOH      DC1            21.1690097591       24.6005318657       -8.2512197319  MEOH      3466            0.0000000000
     51888      4158  MEOH      O1             22.0901360148       24.0757005445       -9.2078440644  MEOH      3466            0.0000000000
     51889      4158  MEOH      DO1            22.0833353330       24.0847156886       -9.2116071156  MEOH      3466            0.0000000000
     51890      4158  MEOH      HO1            22.9649206102       24.0492293930       -8.7895723926  MEOH      3466            0.0000000000
     51891      4158  MEOH      HO2            21.6801698058       23.2673384629       -9.5533559348  MEOH      3466            0.0000000000
     51892      4158  MEOH      H1A            20.1674343422       24.6486116137       -8.7115963792  MEOH      3466            0.0000000000
     51893      4158  MEOH      H1B            21.5052661858       25.6050742351       -7.9423325736  MEOH      3466            0.0000000000
     51894      4158  MEOH      H1C            21.1475191066       23.9205454264       -7.3698226868  MEOH      3466            0.0000000000
     51895      4158  MEOH      LP1A           22.1025578838       23.7266564859       -9.1851737677  MEOH      3466            0.0000000000
     51896      4158  MEOH      LP1B           22.2233808788       24.3366711485       -9.3992602342  MEOH      3466            0.0000000000
     51897      4159  MEOH      C1            -26.1119269988       12.3489131766       26.4098480717  MEOH      3467            0.0000000000
     51898      4159  MEOH      DC1           -26.1135705442       12.3541867907       26.4112330851  MEOH      3467            0.0000000000
     51899      4159  MEOH      O1            -26.5373701881       11.4617449738       25.3711855380  MEOH      3467            0.0000000000
     51900      4159  MEOH      DO1           -26.5416120095       11.4679353964       25.3604689667  MEOH      3467            0.0000000000
     51901      4159  MEOH      HO1           -27.5000942135       11.3733548720       25.4502402087  MEOH      3467            0.0000000000
     51902      4159  MEOH      HO2           -26.1107144156       11.7645566104       24.5543808092  MEOH      3467            0.0000000000
     51903      4159  MEOH      H1A           -25.0016534429       12.3785723962       26.4369398005  MEOH      3467            0.0000000000
     51904      4159  MEOH      H1B           -26.4952039652       12.0133904902       27.3971901073  MEOH      3467            0.0000000000
     51905      4159  MEOH      H1C           -26.5111414400       13.3730177193       26.2481115080  MEOH      3467            0.0000000000
     51906      4159  MEOH      LP1A          -26.6076598570       11.6430857858       25.0801960668  MEOH      3467            0.0000000000
     51907      4159  MEOH      LP1B          -26.5274039222       11.1308611718       25.4848366846  MEOH      3467            0.0000000000
     51908      4160  MEOH      C1            -23.7752211656       25.2447184734       -9.7142923231  MEOH      3468            0.0000000000
     51909      4160  MEOH      DC1           -23.7904417299       25.2454282834       -9.7117144261  MEOH      3468            0.0000000000
     51910      4160  MEOH      O1            -23.8421409589       26.1624963683      -10.8072314206  MEOH      3468            0.0000000000
     51911      4160  MEOH      DO1           -23.8471318576       26.1656012203      -10.8059570645  MEOH      3468            0.0000000000
     51912      4160  MEOH      HO1           -23.0366067964       26.0262175337      -11.3301489980  MEOH      3468            0.0000000000
     51913      4160  MEOH      HO2           -24.7204501219       26.0467477491      -11.2022950500  MEOH      3468            0.0000000000
     51914      4160  MEOH      H1A           -24.6183853011       25.4416057652       -9.0181381479  MEOH      3468            0.0000000000
     51915      4160  MEOH      H1B           -22.8222403706       25.3916974586       -9.1624356549  MEOH      3468            0.0000000000
     51916      4160  MEOH      H1C           -23.8274601920       24.1975332269      -10.0817091790  MEOH      3468            0.0000000000
     51917      4160  MEOH      LP1A          -24.0083866068       26.0148427871      -11.0775290427  MEOH      3468            0.0000000000
     51918      4160  MEOH      LP1B          -23.6972083878       26.4678012283      -10.7162177276  MEOH      3468            0.0000000000
     51919      4161  MEOH      C1            -24.4796363234       23.3597679148        3.4124831116  MEOH      3469            0.0000000000
     51920      4161  MEOH      DC1           -24.5009452055       23.3659403250        3.4390124481  MEOH      3469            0.0000000000
     51921      4161  MEOH      O1            -25.2843524520       23.2081628537        4.5874510515  MEOH      3469            0.0000000000
     51922      4161  MEOH      DO1           -25.3035113047       23.2097545084        4.6098088386  MEOH      3469            0.0000000000
     51923      4161  MEOH      HO1           -25.7406621584       22.3618450837        4.4592805219  MEOH      3469            0.0000000000
     51924      4161  MEOH      HO2           -24.6805766714       23.3358411280        5.3358179836  MEOH      3469            0.0000000000
     51925      4161  MEOH      H1A           -23.9545760107       24.3388274205        3.4211521906  MEOH      3469            0.0000000000
     51926      4161  MEOH      H1B           -25.1130520278       23.2944838238        2.5020746687  MEOH      3469            0.0000000000
     51927      4161  MEOH      H1C           -23.7143589627       22.5560276696        3.3607802926  MEOH      3469            0.0000000000
     51928      4161  MEOH      LP1A          -25.1019099479       23.0442853803        4.8371687049  MEOH      3469            0.0000000000
     51929      4161  MEOH      LP1B          -25.5973969572       23.3567250789        4.5381316534  MEOH      3469            0.0000000000
     51930      4162  MEOH      C1             28.9077391531       11.7352558209        9.3033939402  MEOH      3470            0.0000000000
     51931      4162  MEOH      DC1            28.9033748663       11.7363168494        9.3093641785  MEOH      3470            0.0000000000
     51932      4162  MEOH      O1             30.0892372294       12.0887117218        8.5863309871  MEOH      3470            0.0000000000
     51933      4162  MEOH      DO1            30.0872317627       12.0895302167        8.5875178235  MEOH      3470            0.0000000000
     51934      4162  MEOH      HO1            30.5020019814       12.8310307193        9.0548262010  MEOH      3470            0.0000000000
     51935      4162  MEOH      HO2            30.5756423079       11.2600636353        8.4534684657  MEOH      3470            0.0000000000
     51936      4162  MEOH      H1A            28.3476375088       10.9543388395        8.7459212353  MEOH      3470            0.0000000000
     51937      4162  MEOH      H1B            28.2624278968       12.6341418335        9.4028842349  MEOH      3470            0.0000000000
     51938      4162  MEOH      H1C            29.1722178830       11.3423528746       10.3083811428  MEOH      3470            0.0000000000
     51939      4162  MEOH      LP1A           30.3611265325       11.9026364407        8.7044504038  MEOH      3470            0.0000000000
     51940      4162  MEOH      LP1B           30.0134978654       12.3257913328        8.3402480605  MEOH      3470            0.0000000000
     51941      4163  MEOH      C1             -0.1740701712        9.1147956552       12.5896769995  MEOH      3471            0.0000000000
     51942      4163  MEOH      DC1            -0.1777429930        9.1111674394       12.5854834391  MEOH      3471            0.0000000000
     51943      4163  MEOH      O1              0.8969062606       10.0379721695       12.8001487592  MEOH      3471            0.0000000000
     51944      4163  MEOH      DO1             0.8903643818       10.0404820119       12.7812268836  MEOH      3471            0.0000000000
     51945      4163  MEOH      HO1             0.7429349714       10.4795480155       13.6499743972  MEOH      3471            0.0000000000
     51946      4163  MEOH      HO2             1.7091759662        9.5213514281       12.6808971972  MEOH      3471            0.0000000000
     51947      4163  MEOH      H1A            -0.0405933195        8.6084909861       11.6097991944  MEOH      3471            0.0000000000
     51948      4163  MEOH      H1B            -1.1490348413        9.6474910200       12.5889418370  MEOH      3471            0.0000000000
     51949      4163  MEOH      H1C            -0.1654035005        8.3459305706       13.3916074035  MEOH      3471            0.0000000000
     51950      4163  MEOH      LP1A            1.1610822134        9.8790830643       12.9658753963  MEOH      3471            0.0000000000
     51951      4163  MEOH      LP1B            0.8167531308       10.3483534562       12.6596534474  MEOH      3471            0.0000000000
     51952      4164  MEOH      C1              2.1009423509        6.2400757467       11.0605210896  MEOH      3472            0.0000000000
     51953      4164  MEOH      DC1             2.1068273300        6.2346221408       11.0579040532  MEOH      3472            0.0000000000
     51954      4164  MEOH      O1              3.2626286875        7.0269499218       10.7781454373  MEOH      3472            0.0000000000
     51955      4164  MEOH      DO1             3.2779996326        7.0182900772       10.7807325184  MEOH      3472            0.0000000000
     51956      4164  MEOH      HO1             3.4772605252        6.8637490278        9.8463736613  MEOH      3472            0.0000000000
     51957      4164  MEOH      HO2             3.0237686842        7.9293856045       11.0416900047  MEOH      3472            0.0000000000
     51958      4164  MEOH      H1A             1.7175435239        6.4748809841       12.0764900064  MEOH      3472            0.0000000000
     51959      4164  MEOH      H1B             2.3472064728        5.1582892278       11.0021009605  MEOH      3472            0.0000000000
     51960      4164  MEOH      H1C             1.3043152706        6.4642313896       10.3192650319  MEOH      3472            0.0000000000
     51961      4164  MEOH      LP1A            3.1677314356        7.3465408037       10.6715800594  MEOH      3472            0.0000000000
     51962      4164  MEOH      LP1B            3.5518898748        6.8428128052       10.8482987535  MEOH      3472            0.0000000000
     51963      4165  MEOH      C1              4.4624011328      -30.2652926635       -5.7784682690  MEOH      3473            0.0000000000
     51964      4165  MEOH      DC1             4.4830588459      -30.2575350394       -5.8291946967  MEOH      3473            0.0000000000
     51965      4165  MEOH      O1              5.5025906061      -30.0667885337       -6.7276289127  MEOH      3473            0.0000000000
     51966      4165  MEOH      DO1             5.5390766093      -30.0626146103       -6.7505472461  MEOH      3473            0.0000000000
     51967      4165  MEOH      HO1             5.2421513904      -30.6104378285       -7.4875742136  MEOH      3473            0.0000000000
     51968      4165  MEOH      HO2             5.5901114912      -29.1041957297       -6.8092082504  MEOH      3473            0.0000000000
     51969      4165  MEOH      H1A             4.7171544484      -29.7421066204       -4.8320549803  MEOH      3473            0.0000000000
     51970      4165  MEOH      H1B             4.3281728855      -31.3460736034       -5.5588860802  MEOH      3473            0.0000000000
     51971      4165  MEOH      H1C             3.5027173843      -29.8442635127       -6.1473348552  MEOH      3473            0.0000000000
     51972      4165  MEOH      LP1A            5.4287043173      -29.7911794830       -6.9303120829  MEOH      3473            0.0000000000
     51973      4165  MEOH      LP1B            5.7569323776      -30.3019255995       -6.6774211088  MEOH      3473            0.0000000000
     51974      4166  MEOH      C1            -33.7128886591       30.5435983071       -8.9933935585  MEOH      3474            0.0000000000
     51975      4166  MEOH      DC1           -33.7169747290       30.5481614138       -8.9989516488  MEOH      3474            0.0000000000
     51976      4166  MEOH      O1            -34.7998847106       31.3979802078       -8.6179042411  MEOH      3474            0.0000000000
     51977      4166  MEOH      DO1           -34.8102132576       31.3965240220       -8.6264444246  MEOH      3474            0.0000000000
     51978      4166  MEOH      HO1           -34.9634681311       32.0209979972       -9.3431554386  MEOH      3474            0.0000000000
     51979      4166  MEOH      HO2           -35.4984964191       30.8266397908       -8.2623598577  MEOH      3474            0.0000000000
     51980      4166  MEOH      H1A           -33.3995331304       29.9392223303       -8.1154078002  MEOH      3474            0.0000000000
     51981      4166  MEOH      H1B           -32.8442978084       31.1512862677       -9.3259387082  MEOH      3474            0.0000000000
     51982      4166  MEOH      H1C           -34.0201146758       29.8581732524       -9.8120055974  MEOH      3474            0.0000000000
     51983      4166  MEOH      LP1A          -35.1039543666       31.2547507144       -8.7155103704  MEOH      3474            0.0000000000
     51984      4166  MEOH      LP1B          -34.6783156597       31.6784900514       -8.4475070771  MEOH      3474            0.0000000000
     51985      4167  MEOH      C1            -24.0945194231      -28.8880243156       23.7235704680  MEOH      3475            0.0000000000
     51986      4167  MEOH      DC1           -24.1005342301      -28.9044874082       23.7029291544  MEOH      3475            0.0000000000
     51987      4167  MEOH      O1            -23.6541228085      -28.2917327701       24.9396163317  MEOH      3475            0.0000000000
     51988      4167  MEOH      DO1           -23.6385506366      -28.3059839991       24.9224470448  MEOH      3475            0.0000000000
     51989      4167  MEOH      HO1           -22.7045181654      -28.4472114985       25.0619984690  MEOH      3475            0.0000000000
     51990      4167  MEOH      HO2           -23.9982137637      -27.3848324345       24.9338547430  MEOH      3475            0.0000000000
     51991      4167  MEOH      H1A           -25.1667475045      -28.6396491324       23.5720524479  MEOH      3475            0.0000000000
     51992      4167  MEOH      H1B           -23.9684182428      -29.9903723841       23.7805636985  MEOH      3475            0.0000000000
     51993      4167  MEOH      H1C           -23.5046418371      -28.4785143858       22.8758281410  MEOH      3475            0.0000000000
     51994      4167  MEOH      LP1A          -23.5560252429      -27.9607414786       24.8819827254  MEOH      3475            0.0000000000
     51995      4167  MEOH      LP1B          -23.6888548602      -28.5187669838       25.2037169761  MEOH      3475            0.0000000000
     51996      4168  MEOH      C1              2.5050750110       -5.9379545059       -7.5337947089  MEOH      3476            0.0000000000
     51997      4168  MEOH      DC1             2.5089036680       -5.9761442623       -7.5380516926  MEOH      3476            0.0000000000
     51998      4168  MEOH      O1              2.2739970180       -4.5577097575       -7.2819795629  MEOH      3476            0.0000000000
     51999      4168  MEOH      DO1             2.2864583838       -4.5904644635       -7.2909405987  MEOH      3476            0.0000000000
     52000      4168  MEOH      HO1             2.9477338519       -4.0180745176       -7.7244414105  MEOH      3476            0.0000000000
     52001      4168  MEOH      HO2             1.3342629656       -4.4110259365       -7.4724625493  MEOH      3476            0.0000000000
     52002      4168  MEOH      H1A             1.7812292306       -6.5373498745       -6.9412632920  MEOH      3476            0.0000000000
     52003      4168  MEOH      H1B             3.5433949685       -6.2036886394       -7.2412232871  MEOH      3476            0.0000000000
     52004      4168  MEOH      H1C             2.3509476969       -6.1453762726       -8.6143232748  MEOH      3476            0.0000000000
     52005      4168  MEOH      LP1A            2.0602031845       -4.4257256652       -7.5256440785  MEOH      3476            0.0000000000
     52006      4168  MEOH      LP1B            2.4396950381       -4.4599920047       -6.9895835867  MEOH      3476            0.0000000000
     52007      4169  MEOH      C1              6.6925496750      -22.4720821626       22.5141480160  MEOH      3477            0.0000000000
     52008      4169  MEOH      DC1             6.6818090169      -22.4792914269       22.5092881962  MEOH      3477            0.0000000000
     52009      4169  MEOH      O1              5.6440793983      -23.4002930167       22.2357832621  MEOH      3477            0.0000000000
     52010      4169  MEOH      DO1             5.6343069196      -23.4108405436       22.2428157162  MEOH      3477            0.0000000000
     52011      4169  MEOH      HO1             5.1083325564      -22.9849399519       21.5419841896  MEOH      3477            0.0000000000
     52012      4169  MEOH      HO2             6.0936787491      -24.2380601136       22.0436720528  MEOH      3477            0.0000000000
     52013      4169  MEOH      H1A             7.3692951457      -22.8713827153       23.2995750572  MEOH      3477            0.0000000000
     52014      4169  MEOH      H1B             6.2772610540      -21.5057667564       22.8720459022  MEOH      3477            0.0000000000
     52015      4169  MEOH      H1C             7.2796322661      -22.2634998882       21.5942847283  MEOH      3477            0.0000000000
     52016      4169  MEOH      LP1A            5.7454415294      -23.6241790089       21.9865829794  MEOH      3477            0.0000000000
     52017      4169  MEOH      LP1B            5.3711442174      -23.3392252603       22.4462045446  MEOH      3477            0.0000000000
     52018      4170  MEOH      C1             -7.0599118982       -7.4709945647       11.3541301602  MEOH      3478            0.0000000000
     52019      4170  MEOH      DC1            -7.0409310826       -7.4819389096       11.3473493942  MEOH      3478            0.0000000000
     52020      4170  MEOH      O1             -7.2658263661       -7.3209381777       12.7616528647  MEOH      3478            0.0000000000
     52021      4170  MEOH      DO1            -7.2496244111       -7.3308025476       12.7614724888  MEOH      3478            0.0000000000
     52022      4170  MEOH      HO1            -8.2200516816       -7.3929561221       12.9202954281  MEOH      3478            0.0000000000
     52023      4170  MEOH      HO2            -6.6285684999       -7.9053098619       13.2013256377  MEOH      3478            0.0000000000
     52024      4170  MEOH      H1A            -6.0171156135       -7.1981022018       11.0850081290  MEOH      3478            0.0000000000
     52025      4170  MEOH      H1B            -7.7598269517       -6.8147153934       10.7940073458  MEOH      3478            0.0000000000
     52026      4170  MEOH      H1C            -7.2214209673       -8.5329008605       11.0702448985  MEOH      3478            0.0000000000
     52027      4170  MEOH      LP1A           -7.2463587766       -7.6327676147       12.9193976434  MEOH      3478            0.0000000000
     52028      4170  MEOH      LP1B           -7.3084505362       -6.9827294750       12.8410131414  MEOH      3478            0.0000000000
     52029      4171  MEOH      C1            -25.8380113947       22.2339989719      -22.5446432115  MEOH      3479            0.0000000000
     52030      4171  MEOH      DC1           -25.8473362988       22.2412378020      -22.5454785225  MEOH      3479            0.0000000000
     52031      4171  MEOH      O1            -24.9489596481       23.0929613883      -21.8233606352  MEOH      3479            0.0000000000
     52032      4171  MEOH      DO1           -24.9561671330       23.1023943209      -21.8212138283  MEOH      3479            0.0000000000
     52033      4171  MEOH      HO1           -24.9721886953       22.8087565481      -20.8962209369  MEOH      3479            0.0000000000
     52034      4171  MEOH      HO2           -24.1070076245       23.0587274038      -22.3038237709  MEOH      3479            0.0000000000
     52035      4171  MEOH      H1A           -25.8222534349       22.5025510524      -23.6225822021  MEOH      3479            0.0000000000
     52036      4171  MEOH      H1B           -26.8751468131       22.3351657090      -22.1593687441  MEOH      3479            0.0000000000
     52037      4171  MEOH      H1C           -25.5212381940       21.1746271285      -22.4364441448  MEOH      3479            0.0000000000
     52038      4171  MEOH      LP1A          -24.6254570479       22.9593894204      -21.8255046991  MEOH      3479            0.0000000000
     52039      4171  MEOH      LP1B          -25.1212889905       23.3758283114      -21.7102726094  MEOH      3479            0.0000000000
     52040      4172  MEOH      C1              9.4139535466       -5.8651126387      -15.8646958558  MEOH      3480            0.0000000000
     52041      4172  MEOH      DC1             9.4395794655       -5.8749322734      -15.8618334954  MEOH      3480            0.0000000000
     52042      4172  MEOH      O1             10.7837633385       -6.1299298839      -15.5562386749  MEOH      3480            0.0000000000
     52043      4172  MEOH      DO1            10.8021367893       -6.1384106179      -15.5505380708  MEOH      3480            0.0000000000
     52044      4172  MEOH      HO1            11.0249922890       -5.4655016967      -14.8919768459  MEOH      3480            0.0000000000
     52045      4172  MEOH      HO2            10.8275159722       -7.0763357668      -15.3481482801  MEOH      3480            0.0000000000
     52046      4172  MEOH      H1A             9.0874386421       -6.5198258114      -16.7007937443  MEOH      3480            0.0000000000
     52047      4172  MEOH      H1B             9.2674935545       -4.8111715565      -16.1841933769  MEOH      3480            0.0000000000
     52048      4172  MEOH      H1C             8.7611187844       -6.0449607471      -14.9839107328  MEOH      3480            0.0000000000
     52049      4172  MEOH      LP1A           10.8049603879       -6.3617240448      -15.2948536102  MEOH      3480            0.0000000000
     52050      4172  MEOH      LP1B           10.9920841737       -5.9512204977      -15.7734146057  MEOH      3480            0.0000000000
     52051      4173  MEOH      C1            -14.3833400088       16.1394822973       -1.5383257381  MEOH      3481            0.0000000000
     52052      4173  MEOH      DC1           -14.3923337717       16.1431741655       -1.5368535973  MEOH      3481            0.0000000000
     52053      4173  MEOH      O1            -15.4296826162       15.6281855440       -0.7077021904  MEOH      3481            0.0000000000
     52054      4173  MEOH      DO1           -15.4347241559       15.6348945236       -0.7001592927  MEOH      3481            0.0000000000
     52055      4173  MEOH      HO1           -15.1154284886       14.7784000560       -0.3612790853  MEOH      3481            0.0000000000
     52056      4173  MEOH      HO2           -15.6690121687       16.3484827872       -0.1037210247  MEOH      3481            0.0000000000
     52057      4173  MEOH      H1A           -14.7214301561       17.0676459362       -2.0467825331  MEOH      3481            0.0000000000
     52058      4173  MEOH      H1B           -14.1108793755       15.3926150497       -2.3143898578  MEOH      3481            0.0000000000
     52059      4173  MEOH      H1C           -13.4818871073       16.3631520064       -0.9286737640  MEOH      3481            0.0000000000
     52060      4173  MEOH      LP1A          -15.3897569405       15.7441274016       -0.3798860436  MEOH      3481            0.0000000000
     52061      4173  MEOH      LP1B          -15.6510954085       15.4359425197       -0.8988016278  MEOH      3481            0.0000000000
     52062      4174  MEOH      C1             29.8493144514      -19.0492606063       -9.2869436526  MEOH      3482            0.0000000000
     52063      4174  MEOH      DC1            29.8591949704      -19.0351733689       -9.2938347179  MEOH      3482            0.0000000000
     52064      4174  MEOH      O1             28.8631912157      -20.0576532024       -9.4871104963  MEOH      3482            0.0000000000
     52065      4174  MEOH      DO1            28.8690390860      -20.0418660593       -9.4852387831  MEOH      3482            0.0000000000
     52066      4174  MEOH      HO1            28.7054561567      -20.5105816999       -8.6439762075  MEOH      3482            0.0000000000
     52067      4174  MEOH      HO2            28.1403822904      -19.6364431840       -9.9780579253  MEOH      3482            0.0000000000
     52068      4174  MEOH      H1A            30.1059475919      -18.6301299114      -10.2833320768  MEOH      3482            0.0000000000
     52069      4174  MEOH      H1B            30.7611282387      -19.4839479856       -8.8243817633  MEOH      3482            0.0000000000
     52070      4174  MEOH      H1C            29.4481831512      -18.2302884033       -8.6523577944  MEOH      3482            0.0000000000
     52071      4174  MEOH      LP1A           28.5435507113      -19.9240870992       -9.4372101552  MEOH      3482            0.0000000000
     52072      4174  MEOH      LP1B           29.0163796867      -20.3577860235       -9.5817338657  MEOH      3482            0.0000000000
     52073      4175  MEOH      C1             15.2581717977       11.2081772604      -11.8832749095  MEOH      3483            0.0000000000
     52074      4175  MEOH      DC1            15.2823635370       11.2188468224      -11.8777597302  MEOH      3483            0.0000000000
     52075      4175  MEOH      O1             13.8599734688       11.1559151872      -12.1628136234  MEOH      3483            0.0000000000
     52076      4175  MEOH      DO1            13.8799265207       11.1685458013      -12.1586601464  MEOH      3483            0.0000000000
     52077      4175  MEOH      HO1            13.7189979895       10.7265777480      -13.0211231698  MEOH      3483            0.0000000000
     52078      4175  MEOH      HO2            13.4497863618       10.7683070144      -11.3738862229  MEOH      3483            0.0000000000
     52079      4175  MEOH      H1A            15.4108152946       11.7768072555      -10.9411067231  MEOH      3483            0.0000000000
     52080      4175  MEOH      H1B            15.7943077756       11.7160982014      -12.7132722179  MEOH      3483            0.0000000000
     52081      4175  MEOH      H1C            15.6592244689       10.1822285448      -11.7386824187  MEOH      3483            0.0000000000
     52082      4175  MEOH      LP1A           13.7226413588       10.8617918359      -12.0319268564  MEOH      3483            0.0000000000
     52083      4175  MEOH      LP1B           13.7605044693       11.4465079542      -12.3306282889  MEOH      3483            0.0000000000
     52084      4176  MEOH      C1            -33.3160017497       36.8151872702      -27.9937058001  MEOH      3484            0.0000000000
     52085      4176  MEOH      DC1           -33.3212645905       36.8058785174      -27.9919253693  MEOH      3484            0.0000000000
     52086      4176  MEOH      O1            -33.2723935467       35.4135674860      -27.7334559500  MEOH      3484            0.0000000000
     52087      4176  MEOH      DO1           -33.2761881357       35.4094979445      -27.7282138158  MEOH      3484            0.0000000000
     52088      4176  MEOH      HO1           -33.6576824899       34.9667062489      -28.5033698835  MEOH      3484            0.0000000000
     52089      4176  MEOH      HO2           -32.3603587499       35.2275045169      -27.4605583464  MEOH      3484            0.0000000000
     52090      4176  MEOH      H1A           -32.8645816014       37.3835784060      -27.1525920344  MEOH      3484            0.0000000000
     52091      4176  MEOH      H1B           -34.3797194368       37.1223458088      -28.0857889920  MEOH      3484            0.0000000000
     52092      4176  MEOH      H1C           -32.7609816851       37.0530487965      -28.9262805285  MEOH      3484            0.0000000000
     52093      4176  MEOH      LP1A          -32.9688384436       35.2803528288      -27.8457419888  MEOH      3484            0.0000000000
     52094      4176  MEOH      LP1B          -33.5637463309       35.3135448418      -27.5672963107  MEOH      3484            0.0000000000
     52095      4177  MEOH      C1             -3.2773063981        8.4333866787       -9.8842861604  MEOH      3485            0.0000000000
     52096      4177  MEOH      DC1            -3.2782156904        8.4427943962       -9.8923992558  MEOH      3485            0.0000000000
     52097      4177  MEOH      O1             -3.3817719954        9.3291165121       -8.7762485663  MEOH      3485            0.0000000000
     52098      4177  MEOH      DO1            -3.3744081017        9.3517582570       -8.7871432593  MEOH      3485            0.0000000000
     52099      4177  MEOH      HO1            -4.0137468552        8.9378015071       -8.1530468786  MEOH      3485            0.0000000000
     52100      4177  MEOH      HO2            -2.4775377669        9.5460250462       -8.5001848975  MEOH      3485            0.0000000000
     52101      4177  MEOH      H1A            -2.6320571996        8.8806435437      -10.6703750671  MEOH      3485            0.0000000000
     52102      4177  MEOH      H1B            -4.2841774772        8.1927608573      -10.2875613073  MEOH      3485            0.0000000000
     52103      4177  MEOH      H1C            -2.8060209855        7.4812123179       -9.5593630183  MEOH      3485            0.0000000000
     52104      4177  MEOH      LP1A           -3.1405832088        9.2500571432       -8.5352556505  MEOH      3485            0.0000000000
     52105      4177  MEOH      LP1B           -3.6329019144        9.5653342252       -8.8365391607  MEOH      3485            0.0000000000
     52106      4178  MEOH      C1             22.1822667468       34.9342169467       29.4993359323  MEOH      3486            0.0000000000
     52107      4178  MEOH      DC1            22.1914373062       34.9389131822       29.5012437303  MEOH      3486            0.0000000000
     52108      4178  MEOH      O1             23.1742564466       34.9824909072       30.5308404302  MEOH      3486            0.0000000000
     52109      4178  MEOH      DO1            23.1878498599       35.0022857753       30.5380656074  MEOH      3486            0.0000000000
     52110      4178  MEOH      HO1            22.8743148920       34.3310186528       31.1839246250  MEOH      3486            0.0000000000
     52111      4178  MEOH      HO2            24.0162582801       34.8109037076       30.0808507115  MEOH      3486            0.0000000000
     52112      4178  MEOH      H1A            22.4978847637       35.5556570256       28.6341662972  MEOH      3486            0.0000000000
     52113      4178  MEOH      H1B            21.2113232189       35.3137088129       29.8834916164  MEOH      3486            0.0000000000
     52114      4178  MEOH      H1C            22.0453430875       33.8859769013       29.1576259402  MEOH      3486            0.0000000000
     52115      4178  MEOH      LP1A           23.4319778529       34.7566057197       30.4597379771  MEOH      3486            0.0000000000
     52116      4178  MEOH      LP1B           23.0880961623       35.2245056917       30.7685487587  MEOH      3486            0.0000000000
     52117      4179  MEOH      C1             27.4963454636      -35.2696991346        3.9050882835  MEOH      3487            0.0000000000
     52118      4179  MEOH      DC1            27.4613723671      -35.2883100004        3.8785187800  MEOH      3487            0.0000000000
     52119      4179  MEOH      O1             28.6897000260      -35.0556430636        4.6476957927  MEOH      3487            0.0000000000
     52120      4179  MEOH      DO1            28.6542058923      -35.0624816846        4.6323380641  MEOH      3487            0.0000000000
     52121      4179  MEOH      HO1            29.4364183705      -34.8555093091        4.0618133846  MEOH      3487            0.0000000000
     52122      4179  MEOH      HO2            28.4584154988      -34.4585687619        5.3763313296  MEOH      3487            0.0000000000
     52123      4179  MEOH      H1A            26.7784860244      -35.8091771867        4.5592765267  MEOH      3487            0.0000000000
     52124      4179  MEOH      H1B            27.7249628854      -35.8747131870        3.0017538654  MEOH      3487            0.0000000000
     52125      4179  MEOH      H1C            27.0551768088      -34.2949206294        3.6059259761  MEOH      3487            0.0000000000
     52126      4179  MEOH      LP1A           28.7172180097      -34.7179047512        4.7353062536  MEOH      3487            0.0000000000
     52127      4179  MEOH      LP1B           28.8573947198      -35.3592056994        4.6948997739  MEOH      3487            0.0000000000
     52128      4180  MEOH      C1             17.7876232471       14.1094671081       29.9197026709  MEOH      3488            0.0000000000
     52129      4180  MEOH      DC1            17.7884691290       14.1195764551       29.9258649108  MEOH      3488            0.0000000000
     52130      4180  MEOH      O1             17.9118819026       15.3786207794       30.5665038432  MEOH      3488            0.0000000000
     52131      4180  MEOH      DO1            17.9100035243       15.3877519457       30.5672087493  MEOH      3488            0.0000000000
     52132      4180  MEOH      HO1            17.2492855143       15.3945178684       31.2747504873  MEOH      3488            0.0000000000
     52133      4180  MEOH      HO2            18.8521914708       15.4687783405       30.7869341766  MEOH      3488            0.0000000000
     52134      4180  MEOH      H1A            18.4923673878       14.0547867377       29.0625756362  MEOH      3488            0.0000000000
     52135      4180  MEOH      H1B            16.7520927492       13.9752787917       29.5402411004  MEOH      3488            0.0000000000
     52136      4180  MEOH      H1C            18.0234409079       13.2878425228       30.6293815228  MEOH      3488            0.0000000000
     52137      4180  MEOH      LP1A           18.1463500876       15.3584983507       30.8255786550  MEOH      3488            0.0000000000
     52138      4180  MEOH      LP1B           17.7066986682       15.6140853422       30.4085282754  MEOH      3488            0.0000000000
     52139      4181  MEOH      C1             19.5851370343      -18.3445221930      -16.6376980247  MEOH      3489            0.0000000000
     52140      4181  MEOH      DC1            19.5751536066      -18.3372942104      -16.6194743655  MEOH      3489            0.0000000000
     52141      4181  MEOH      O1             20.2818061301      -17.4012395633      -15.8242792383  MEOH      3489            0.0000000000
     52142      4181  MEOH      DO1            20.2723496503      -17.3954913518      -15.8054257619  MEOH      3489            0.0000000000
     52143      4181  MEOH      HO1            20.9160147442      -16.9736433980      -16.4208032974  MEOH      3489            0.0000000000
     52144      4181  MEOH      HO2            19.6042119134      -16.8885869304      -15.3563547184  MEOH      3489            0.0000000000
     52145      4181  MEOH      H1A            18.9897570959      -19.0511805786      -16.0208693149  MEOH      3489            0.0000000000
     52146      4181  MEOH      H1B            20.3013607302      -18.9356475622      -17.2475467077  MEOH      3489            0.0000000000
     52147      4181  MEOH      H1C            18.8835767762      -17.8004939723      -17.3056557323  MEOH      3489            0.0000000000
     52148      4181  MEOH      LP1A           20.1131197736      -17.0945741850      -15.8254012605  MEOH      3489            0.0000000000
     52149      4181  MEOH      LP1B           20.5610986135      -17.5528614159      -15.6776282154  MEOH      3489            0.0000000000
     52150      4182  MEOH      C1            -14.8489206102      -34.9337653471       24.4569389442  MEOH      3490            0.0000000000
     52151      4182  MEOH      DC1           -14.8501701047      -34.9445009650       24.4597612078  MEOH      3490            0.0000000000
     52152      4182  MEOH      O1            -15.2257092286      -33.7146303411       25.0871589144  MEOH      3490            0.0000000000
     52153      4182  MEOH      DO1           -15.2287836948      -33.7299357617       25.0985468284  MEOH      3490            0.0000000000
     52154      4182  MEOH      HO1           -15.6731959850      -33.1558003556       24.4326631920  MEOH      3490            0.0000000000
     52155      4182  MEOH      HO2           -15.6144576166      -33.9397795784       25.9468579966  MEOH      3490            0.0000000000
     52156      4182  MEOH      H1A           -14.1112865911      -35.4675944584       25.0935263567  MEOH      3490            0.0000000000
     52157      4182  MEOH      H1B           -14.3833941967      -34.7232788559       23.4703784558  MEOH      3490            0.0000000000
     52158      4182  MEOH      H1C           -15.7468664804      -35.5736457642       24.3206771864  MEOH      3490            0.0000000000
     52159      4182  MEOH      LP1A          -15.5439656538      -33.7466927390       25.2292323126  MEOH      3490            0.0000000000
     52160      4182  MEOH      LP1B          -14.9662696919      -33.4811667886       25.0609692890  MEOH      3490            0.0000000000
     52161      4183  MEOH      C1            -31.2067541960       36.4964844035       14.3220108814  MEOH      3491            0.0000000000
     52162      4183  MEOH      DC1           -31.2006935428       36.4926541076       14.3216250537  MEOH      3491            0.0000000000
     52163      4183  MEOH      O1            -32.5563678989       36.7063631572       13.9182148353  MEOH      3491            0.0000000000
     52164      4183  MEOH      DO1           -32.5523096081       36.7084553935       13.9241121929  MEOH      3491            0.0000000000
     52165      4183  MEOH      HO1           -32.5632691204       37.4794821642       13.3324338391  MEOH      3491            0.0000000000
     52166      4183  MEOH      HO2           -32.8564217389       35.8484116033       13.5794127923  MEOH      3491            0.0000000000
     52167      4183  MEOH      H1A           -31.1564283851       35.6523242776       15.0425537285  MEOH      3491            0.0000000000
     52168      4183  MEOH      H1B           -30.8065836718       37.4113146167       14.8091148064  MEOH      3491            0.0000000000
     52169      4183  MEOH      H1C           -30.5823450214       36.2489576111       13.4370449666  MEOH      3491            0.0000000000
     52170      4183  MEOH      LP1A          -32.6242911648       36.5232029135       13.6278034804  MEOH      3491            0.0000000000
     52171      4183  MEOH      LP1B          -32.7185866498       36.9157488872       14.1470000904  MEOH      3491            0.0000000000
     52172      4184  MEOH      C1            -21.6785422255       -7.8026477677       -1.5542554199  MEOH      3492            0.0000000000
     52173      4184  MEOH      DC1           -21.6718422851       -7.8005684478       -1.5618485271  MEOH      3492            0.0000000000
     52174      4184  MEOH      O1            -22.7053704676       -7.0948031888       -2.2504771637  MEOH      3492            0.0000000000
     52175      4184  MEOH      DO1           -22.6992388586       -7.0845495087       -2.2471767411  MEOH      3492            0.0000000000
     52176      4184  MEOH      HO1           -22.6313796995       -7.3071655070       -3.1940488956  MEOH      3492            0.0000000000
     52177      4184  MEOH      HO2           -23.5278673991       -7.2971008848       -1.7777463315  MEOH      3492            0.0000000000
     52178      4184  MEOH      H1A           -21.7373903580       -7.5738852247       -0.4686562319  MEOH      3492            0.0000000000
     52179      4184  MEOH      H1B           -20.6819650506       -7.4869806355       -1.9304325007  MEOH      3492            0.0000000000
     52180      4184  MEOH      H1C           -21.8092944970       -8.8968658845       -1.6953637396  MEOH      3492            0.0000000000
     52181      4184  MEOH      LP1A          -22.9969451255       -7.2880384087       -2.2624925137  MEOH      3492            0.0000000000
     52182      4184  MEOH      LP1B          -22.5895303132       -6.7784161265       -2.3452415319  MEOH      3492            0.0000000000
     52183      4185  MEOH      C1              0.6349282520       -3.8947214002       29.0755647801  MEOH      3493            0.0000000000
     52184      4185  MEOH      DC1             0.6344263860       -3.8881580264       29.0645555266  MEOH      3493            0.0000000000
     52185      4185  MEOH      O1              0.9150781479       -3.2288636694       27.8435267102  MEOH      3493            0.0000000000
     52186      4185  MEOH      DO1             0.9148914574       -3.2264471895       27.8344765933  MEOH      3493            0.0000000000
     52187      4185  MEOH      HO1             0.1433317371       -2.6795474724       27.6348183176  MEOH      3493            0.0000000000
     52188      4185  MEOH      HO2             1.7844889558       -2.8157845846       27.9634871975  MEOH      3493            0.0000000000
     52189      4185  MEOH      H1A             1.4754083758       -4.5726362049       29.3369948464  MEOH      3493            0.0000000000
     52190      4185  MEOH      H1B            -0.2946411296       -4.4964492602       28.9853132019  MEOH      3493            0.0000000000
     52191      4185  MEOH      H1C             0.5063127962       -3.1580588693       29.8972139639  MEOH      3493            0.0000000000
     52192      4185  MEOH      LP1A            1.0772261074       -2.9250144829       27.9058461384  MEOH      3493            0.0000000000
     52193      4185  MEOH      LP1B            0.8101386750       -3.4262503279       27.5742197960  MEOH      3493            0.0000000000
     52194      4186  MEOH      C1              3.4656395393       16.7742047118      -29.1150439898  MEOH      3494            0.0000000000
     52195      4186  MEOH      DC1             3.4760804629       16.7741104551      -29.1011996556  MEOH      3494            0.0000000000
     52196      4186  MEOH      O1              3.3015728405       17.9780507965      -29.8711762555  MEOH      3494            0.0000000000
     52197      4186  MEOH      DO1             3.3212695041       17.9775655877      -29.8617777139  MEOH      3494            0.0000000000
     52198      4186  MEOH      HO1             2.7162983661       18.5850711026      -29.3917180834  MEOH      3494            0.0000000000
     52199      4186  MEOH      HO2             4.1788539130       18.2379930591      -30.1932134271  MEOH      3494            0.0000000000
     52200      4186  MEOH      H1A             3.9309342870       16.0002664880      -29.7622235817  MEOH      3494            0.0000000000
     52201      4186  MEOH      H1B             2.4802974039       16.3953470789      -28.7687944118  MEOH      3494            0.0000000000
     52202      4186  MEOH      H1C             4.1178148228       16.9582352903      -28.2346343420  MEOH      3494            0.0000000000
     52203      4186  MEOH      LP1A            3.5517586443       18.2076723462      -29.7864354301  MEOH      3494            0.0000000000
     52204      4186  MEOH      LP1B            3.0308215902       17.9456366100      -30.0905915717  MEOH      3494            0.0000000000
     52205      4187  MEOH      C1             -6.6770904351       -2.2416518156       32.1271739474  MEOH      3495            0.0000000000
     52206      4187  MEOH      DC1            -6.6767635053       -2.2501640776       32.1202246532  MEOH      3495            0.0000000000
     52207      4187  MEOH      O1             -5.6675892390       -2.2325390249       33.1419131190  MEOH      3495            0.0000000000
     52208      4187  MEOH      DO1            -5.6683154516       -2.2329010263       33.1395695701  MEOH      3495            0.0000000000
     52209      4187  MEOH      HO1            -4.9056190301       -1.7398451463       32.7990514230  MEOH      3495            0.0000000000
     52210      4187  MEOH      HO2            -6.1097264040       -1.9123559196       33.9437220158  MEOH      3495            0.0000000000
     52211      4187  MEOH      H1A            -7.5629253221       -2.7986181086       32.5005452135  MEOH      3495            0.0000000000
     52212      4187  MEOH      H1B            -6.3261379242       -2.7419116442       31.1993305126  MEOH      3495            0.0000000000
     52213      4187  MEOH      H1C            -6.9731109857       -1.2011878456       31.8739397459  MEOH      3495            0.0000000000
     52214      4187  MEOH      LP1A           -5.7117795092       -1.9563065873       33.3522529878  MEOH      3495            0.0000000000
     52215      4187  MEOH      LP1B           -5.4614155504       -2.5133499003       33.1081838678  MEOH      3495            0.0000000000
     52216      4188  MEOH      C1            -10.5776349534       28.6229711786       -7.9701079769  MEOH      3496            0.0000000000
     52217      4188  MEOH      DC1           -10.5707288149       28.6263298107       -7.9707715993  MEOH      3496            0.0000000000
     52218      4188  MEOH      O1            -11.6448563228       28.9435667679       -8.8474209235  MEOH      3496            0.0000000000
     52219      4188  MEOH      DO1           -11.6375100832       28.9583486344       -8.8380276817  MEOH      3496            0.0000000000
     52220      4188  MEOH      HO1           -12.4677695245       29.0683728565       -8.3492871026  MEOH      3496            0.0000000000
     52221      4188  MEOH      HO2           -11.3069108493       29.5671747897       -9.5090899436  MEOH      3496            0.0000000000
     52222      4188  MEOH      H1A            -9.7502758939       28.1674642535       -8.5551818419  MEOH      3496            0.0000000000
     52223      4188  MEOH      H1B           -10.9294643615       27.8723615576       -7.2304308401  MEOH      3496            0.0000000000
     52224      4188  MEOH      H1C           -10.2067147953       29.5312378361       -7.4487722739  MEOH      3496            0.0000000000
     52225      4188  MEOH      LP1A          -11.6626634738       29.2901798375       -8.8926125750  MEOH      3496            0.0000000000
     52226      4188  MEOH      LP1B          -11.8000364803       28.6504657328       -8.9592730666  MEOH      3496            0.0000000000
     52227      4189  MEOH      C1            -19.6603326009       30.0803853922       -1.0752286883  MEOH      3497            0.0000000000
     52228      4189  MEOH      DC1           -19.6413438460       30.0872281380       -1.0594726420  MEOH      3497            0.0000000000
     52229      4189  MEOH      O1            -20.9337271858       29.8766978731       -1.6884114911  MEOH      3497            0.0000000000
     52230      4189  MEOH      DO1           -20.9155633638       29.8993501778       -1.6729585343  MEOH      3497            0.0000000000
     52231      4189  MEOH      HO1           -21.5307751574       29.3372225808       -1.1467472699  MEOH      3497            0.0000000000
     52232      4189  MEOH      HO2           -21.1892736373       30.6906566833       -2.1500033749  MEOH      3497            0.0000000000
     52233      4189  MEOH      H1A           -18.9205428099       30.2953135424       -1.8757522393  MEOH      3497            0.0000000000
     52234      4189  MEOH      H1B           -19.3413934363       29.1636184547       -0.5347315176  MEOH      3497            0.0000000000
     52235      4189  MEOH      H1C           -19.7040609713       30.9490408294       -0.3839642220  MEOH      3497            0.0000000000
     52236      4189  MEOH      LP1A          -21.1524561583       30.1347765153       -1.5986726978  MEOH      3497            0.0000000000
     52237      4189  MEOH      LP1B          -20.9251477329       29.5907066624       -1.8899937829  MEOH      3497            0.0000000000
     52238      4190  MEOH      C1              2.0616486961       17.3087428519       22.5126090099  MEOH      3498            0.0000000000
     52239      4190  MEOH      DC1             2.0631483317       17.3184844227       22.5175924638  MEOH      3498            0.0000000000
     52240      4190  MEOH      O1              3.1166796887       17.9996946031       21.8476507602  MEOH      3498            0.0000000000
     52241      4190  MEOH      DO1             3.1141859915       18.0038616403       21.8431025772  MEOH      3498            0.0000000000
     52242      4190  MEOH      HO1             3.5568715293       18.5719737679       22.4954375320  MEOH      3498            0.0000000000
     52243      4190  MEOH      HO2             3.6367849108       17.3162388231       21.3967863074  MEOH      3498            0.0000000000
     52244      4190  MEOH      H1A             1.5191527701       16.6597456360       21.7923161632  MEOH      3498            0.0000000000
     52245      4190  MEOH      H1B             1.3523333939       18.0415435095       22.9532857604  MEOH      3498            0.0000000000
     52246      4190  MEOH      H1C             2.4715255866       16.6573341240       23.3138509248  MEOH      3498            0.0000000000
     52247      4190  MEOH      LP1A            3.4110475202       17.8108937185       21.8618565960  MEOH      3498            0.0000000000
     52248      4190  MEOH      LP1B            2.9967706121       18.2992149781       21.7119696698  MEOH      3498            0.0000000000
     52249      4191  MEOH      C1              1.3951174606       35.6012458325      -20.1500412256  MEOH      3499            0.0000000000
     52250      4191  MEOH      DC1             1.4079230924       35.6038461877      -20.1510910556  MEOH      3499            0.0000000000
     52251      4191  MEOH      O1              0.4091297835       36.5232213174      -20.6227850391  MEOH      3499            0.0000000000
     52252      4191  MEOH      DO1             0.4226129287       36.5351625200      -20.6239557466  MEOH      3499            0.0000000000
     52253      4191  MEOH      HO1            -0.3804387142       36.4207230356      -20.0687311702  MEOH      3499            0.0000000000
     52254      4191  MEOH      HO2             0.8563758569       37.3781084662      -20.7229794169  MEOH      3499            0.0000000000
     52255      4191  MEOH      H1A             2.2283551636       35.5517238038      -20.8832420848  MEOH      3499            0.0000000000
     52256      4191  MEOH      H1B             0.9451707116       34.5898374809      -20.0555845199  MEOH      3499            0.0000000000
     52257      4191  MEOH      H1C             1.7894431154       35.9256885680      -19.1633471538  MEOH      3499            0.0000000000
     52258      4191  MEOH      LP1A            0.4452952181       36.8310077323      -20.4601210169  MEOH      3499            0.0000000000
     52259      4191  MEOH      LP1B            0.2152021152       36.3734009941      -20.8726768761  MEOH      3499            0.0000000000
     52260      4192  MEOH      C1             15.4062979777        0.5065394775      -27.3230317509  MEOH      3500            0.0000000000
     52261      4192  MEOH      DC1            15.4081623560        0.5008122388      -27.3200438265  MEOH      3500            0.0000000000
     52262      4192  MEOH      O1             16.7070879850        0.9663017786      -27.6824722575  MEOH      3500            0.0000000000
     52263      4192  MEOH      DO1            16.7096922069        0.9664678618      -27.6860989922  MEOH      3500            0.0000000000
     52264      4192  MEOH      HO1            16.9763058688        0.5005594546      -28.4896313612  MEOH      3500            0.0000000000
     52265      4192  MEOH      HO2            16.6638567791        1.9350811486      -27.6601653791  MEOH      3500            0.0000000000
     52266      4192  MEOH      H1A            15.1085288696        0.9627908926      -26.3547914888  MEOH      3500            0.0000000000
     52267      4192  MEOH      H1B            15.4102915753       -0.6005505852      -27.2299906618  MEOH      3500            0.0000000000
     52268      4192  MEOH      H1C            14.6700062305        0.8144068284      -28.0959568175  MEOH      3500            0.0000000000
     52269      4192  MEOH      LP1A           16.6817277578        1.2466497192      -27.8904671880  MEOH      3500            0.0000000000
     52270      4192  MEOH      LP1B           16.9509296462        0.7701536022      -27.5257331841  MEOH      3500            0.0000000000
     52271      4193  MEOH      C1              3.6155349694        8.3917099662       -8.9642555309  MEOH      3501            0.0000000000
     52272      4193  MEOH      DC1             3.6363841292        8.4042844903       -8.9721495815  MEOH      3501            0.0000000000
     52273      4193  MEOH      O1              4.1270226021        7.2584558472       -9.6780663694  MEOH      3501            0.0000000000
     52274      4193  MEOH      DO1             4.1463096040        7.2663086644       -9.6914343746  MEOH      3501            0.0000000000
     52275      4193  MEOH      HO1             3.7838320890        6.4850530659       -9.2037580207  MEOH      3501            0.0000000000
     52276      4193  MEOH      HO2             3.8682376164        7.3892094921      -10.6037195529  MEOH      3501            0.0000000000
     52277      4193  MEOH      H1A             3.9451321599        9.3509070797       -9.4177173171  MEOH      3501            0.0000000000
     52278      4193  MEOH      H1B             3.8997238458        8.3411263387       -7.8914093259  MEOH      3501            0.0000000000
     52279      4193  MEOH      H1C             2.5090459785        8.4449358382       -9.0489320892  MEOH      3501            0.0000000000
     52280      4193  MEOH      LP1A            3.9055216083        7.1679289719       -9.9334918861  MEOH      3501            0.0000000000
     52281      4193  MEOH      LP1B            4.4392512296        7.1667679006       -9.5491997536  MEOH      3501            0.0000000000
     52282      4194  MEOH      C1            -15.9154287816       30.7290468328      -29.7209527188  MEOH      3502            0.0000000000
     52283      4194  MEOH      DC1           -15.9159593402       30.7278793967      -29.7292261875  MEOH      3502            0.0000000000
     52284      4194  MEOH      O1            -17.2415501417       31.2148088829      -29.9239040544  MEOH      3502            0.0000000000
     52285      4194  MEOH      DO1           -17.2440784835       31.2128888963      -29.9253031534  MEOH      3502            0.0000000000
     52286      4194  MEOH      HO1           -17.7947165445       30.8420244297      -29.2196749140  MEOH      3502            0.0000000000
     52287      4194  MEOH      HO2           -17.1631870302       32.1772380414      -30.0160416620  MEOH      3502            0.0000000000
     52288      4194  MEOH      H1A           -15.2611888452       31.0790842582      -30.5478535032  MEOH      3502            0.0000000000
     52289      4194  MEOH      H1B           -15.9198692151       29.6182821987      -29.6985203725  MEOH      3502            0.0000000000
     52290      4194  MEOH      H1C           -15.5151237080       31.1143292523      -28.7588538119  MEOH      3502            0.0000000000
     52291      4194  MEOH      LP1A          -17.2847632065       31.5187053328      -29.7557387228  MEOH      3502            0.0000000000
     52292      4194  MEOH      LP1B          -17.4173097054       30.9982520187      -30.1353554680  MEOH      3502            0.0000000000
     52293      4195  MEOH      C1             15.2741757834       17.2222052977      -21.1703732568  MEOH      3503            0.0000000000
     52294      4195  MEOH      DC1            15.2727549864       17.2350019512      -21.1530633338  MEOH      3503            0.0000000000
     52295      4195  MEOH      O1             15.4841287286       17.2720499797      -19.7632058373  MEOH      3503            0.0000000000
     52296      4195  MEOH      DO1            15.4827976328       17.2906615330      -19.7504322468  MEOH      3503            0.0000000000
     52297      4195  MEOH      HO1            14.6636939494       17.6024770705      -19.3649537679  MEOH      3503            0.0000000000
     52298      4195  MEOH      HO2            15.8119740013       16.3924441161      -19.5188474889  MEOH      3503            0.0000000000
     52299      4195  MEOH      H1A            16.1882141544       16.8661144252      -21.6919613577  MEOH      3503            0.0000000000
     52300      4195  MEOH      H1B            15.0235193029       18.2443203881      -21.5264253206  MEOH      3503            0.0000000000
     52301      4195  MEOH      H1C            14.4350792523       16.5396314553      -21.4240087465  MEOH      3503            0.0000000000
     52302      4195  MEOH      LP1A           15.3962566956       16.9658874117      -19.6181438238  MEOH      3503            0.0000000000
     52303      4195  MEOH      LP1B           15.6179836360       17.5826281461      -19.6730722345  MEOH      3503            0.0000000000
     52304      4196  MEOH      C1              3.1133323858      -26.2039089765       16.1468287043  MEOH      3504            0.0000000000
     52305      4196  MEOH      DC1             3.1078655524      -26.1971726314       16.1517235630  MEOH      3504            0.0000000000
     52306      4196  MEOH      O1              4.4760195005      -26.0416478933       15.7711917480  MEOH      3504            0.0000000000
     52307      4196  MEOH      DO1             4.4618830972      -26.0433019190       15.7698583887  MEOH      3504            0.0000000000
     52308      4196  MEOH      HO1             4.9508851282      -26.8826046989       15.8617140475  MEOH      3504            0.0000000000
     52309      4196  MEOH      HO2             4.4761949737      -25.5421050508       14.9397129940  MEOH      3504            0.0000000000
     52310      4196  MEOH      H1A             2.6451915013      -25.2016298599       16.2497931981  MEOH      3504            0.0000000000
     52311      4196  MEOH      H1B             3.0501943259      -26.7404296826       17.1176428566  MEOH      3504            0.0000000000
     52312      4196  MEOH      H1C             2.5660578904      -26.7712249139       15.3639083675  MEOH      3504            0.0000000000
     52313      4196  MEOH      LP1A            4.5132236173      -26.0990601967       15.4279430318  MEOH      3504            0.0000000000
     52314      4196  MEOH      LP1B            4.6661726558      -25.9458448526       16.0489750357  MEOH      3504            0.0000000000
     52315      4197  MEOH      C1             20.4429239685       -2.1587412301       36.1601485979  MEOH      3505            0.0000000000
     52316      4197  MEOH      DC1            20.4343656633       -2.1471853850       36.1628738145  MEOH      3505            0.0000000000
     52317      4197  MEOH      O1             20.8825842601       -3.5014498339       36.0158254739  MEOH      3505            0.0000000000
     52318      4197  MEOH      DO1            20.8782553792       -3.4946292315       36.0306418497  MEOH      3505            0.0000000000
     52319      4197  MEOH      HO1            20.1565964171       -4.0528124076       35.6844028370  MEOH      3505            0.0000000000
     52320      4197  MEOH      HO2            21.3376610991       -3.7327879592       36.8406210505  MEOH      3505            0.0000000000
     52321      4197  MEOH      H1A            20.6678207709       -1.8134319997       37.1918966127  MEOH      3505            0.0000000000
     52322      4197  MEOH      H1B            19.3491899182       -2.1007259166       35.9738664130  MEOH      3505            0.0000000000
     52323      4197  MEOH      H1C            20.9947981421       -1.5249552966       35.4334634618  MEOH      3505            0.0000000000
     52324      4197  MEOH      LP1A           21.0176258449       -3.5495275840       35.6965257709  MEOH      3505            0.0000000000
     52325      4197  MEOH      LP1B           20.8320835634       -3.6767108149       36.3145448543  MEOH      3505            0.0000000000
     52326      4198  MEOH      C1             32.3770270036        6.9551444573      -16.8696207273  MEOH      3506            0.0000000000
     52327      4198  MEOH      DC1            32.3864750057        6.9485790899      -16.8671073542  MEOH      3506            0.0000000000
     52328      4198  MEOH      O1             32.9093340892        6.3360606354      -15.6949394315  MEOH      3506            0.0000000000
     52329      4198  MEOH      DO1            32.9118822129        6.3184420125      -15.7031970158  MEOH      3506            0.0000000000
     52330      4198  MEOH      HO1            32.2401673967        6.4071123658      -14.9963210885  MEOH      3506            0.0000000000
     52331      4198  MEOH      HO2            33.2713105616        5.4790495754      -15.9695392803  MEOH      3506            0.0000000000
     52332      4198  MEOH      H1A            33.1765450351        7.0627701887      -17.6334980863  MEOH      3506            0.0000000000
     52333      4198  MEOH      H1B            31.9828482447        7.9645493710      -16.6245782283  MEOH      3506            0.0000000000
     52334      4198  MEOH      H1C            31.5516375318        6.3406283634      -17.2884562457  MEOH      3506            0.0000000000
     52335      4198  MEOH      LP1A           32.8304056734        5.9950813078      -15.6930946227  MEOH      3506            0.0000000000
     52336      4198  MEOH      LP1B           33.0870164404        6.5709697666      -15.5058715016  MEOH      3506            0.0000000000
     52337      4199  MEOH      C1             20.6377773051      -22.3757963343       18.2451404702  MEOH      3507            0.0000000000
     52338      4199  MEOH      DC1            20.6392614881      -22.3703968889       18.2552257967  MEOH      3507            0.0000000000
     52339      4199  MEOH      O1             19.4026512259      -22.1153450317       18.9022741141  MEOH      3507            0.0000000000
     52340      4199  MEOH      DO1            19.4179582573      -22.1184201222       18.9313942805  MEOH      3507            0.0000000000
     52341      4199  MEOH      HO1            19.0566180281      -21.2783003130       18.5551182908  MEOH      3507            0.0000000000
     52342      4199  MEOH      HO2            18.8773082856      -22.9152021782       18.7437075967  MEOH      3507            0.0000000000
     52343      4199  MEOH      H1A            20.9639796055      -23.4031362315       18.5143723343  MEOH      3507            0.0000000000
     52344      4199  MEOH      H1B            21.4298288735      -21.6558217702       18.5428180488  MEOH      3507            0.0000000000
     52345      4199  MEOH      H1C            20.4955846398      -22.3209046140       17.1446455156  MEOH      3507            0.0000000000
     52346      4199  MEOH      LP1A           19.1392620691      -22.2622860714       18.7246946024  MEOH      3507            0.0000000000
     52347      4199  MEOH      LP1B           19.4593856241      -21.9343133001       19.1963977618  MEOH      3507            0.0000000000
     52348      4200  MEOH      C1             -8.6375559977      -20.5819766090       30.0244724288  MEOH      3508            0.0000000000
     52349      4200  MEOH      DC1            -8.6230122293      -20.5998083992       30.0220858503  MEOH      3508            0.0000000000
     52350      4200  MEOH      O1             -9.9588799107      -20.5183109524       29.4888339987  MEOH      3508            0.0000000000
     52351      4200  MEOH      DO1            -9.9487936566      -20.5248348043       29.4844287746  MEOH      3508            0.0000000000
     52352      4200  MEOH      HO1           -10.5745559510      -20.7247624782       30.2094037600  MEOH      3508            0.0000000000
     52353      4200  MEOH      HO2           -10.0181582626      -19.6483637536       29.0638893567  MEOH      3508            0.0000000000
     52354      4200  MEOH      H1A            -7.9013014590      -20.3288166634       29.2319067860  MEOH      3508            0.0000000000
     52355      4200  MEOH      H1B            -8.4325528481      -21.6019456708       30.4142901072  MEOH      3508            0.0000000000
     52356      4200  MEOH      H1C            -8.5320713943      -19.8350310233       30.8401110071  MEOH      3508            0.0000000000
     52357      4200  MEOH      LP1A          -10.0836658661      -20.1924784997       29.5164325154  MEOH      3508            0.0000000000
     52358      4200  MEOH      LP1B          -10.0514472119      -20.8307418923       29.3610912787  MEOH      3508            0.0000000000
     52359      4201  MEOH      C1             29.2917861335       18.2383037591      -36.5281115410  MEOH      3509            0.0000000000
     52360      4201  MEOH      DC1            29.2820309984       18.2287522452      -36.5242792228  MEOH      3509            0.0000000000
     52361      4201  MEOH      O1             28.0766537142       17.4991636831      -36.6965865439  MEOH      3509            0.0000000000
     52362      4201  MEOH      DO1            28.0650607700       17.4903699860      -36.6977342378  MEOH      3509            0.0000000000
     52363      4201  MEOH      HO1            27.9066355237       17.0586643620      -35.8492647840  MEOH      3509            0.0000000000
     52364      4201  MEOH      HO2            27.4334571724       18.1264682771      -37.0622190849  MEOH      3509            0.0000000000
     52365      4201  MEOH      H1A            29.5767447120       18.7233466215      -37.4861580066  MEOH      3509            0.0000000000
     52366      4201  MEOH      H1B            30.1152376142       17.5613669405      -36.2150537129  MEOH      3509            0.0000000000
     52367      4201  MEOH      H1C            29.1550757848       19.0310498936      -35.7618316657  MEOH      3509            0.0000000000
     52368      4201  MEOH      LP1A           27.8019798930       17.7001907608      -36.6150855869  MEOH      3509            0.0000000000
     52369      4201  MEOH      LP1B           28.1474545718       17.1782808391      -36.8170914772  MEOH      3509            0.0000000000
     52370      4202  MEOH      C1             12.0991714295       29.5573367892      -11.6389284518  MEOH      3510            0.0000000000
     52371      4202  MEOH      DC1            12.1001938225       29.5670577565      -11.6331862967  MEOH      3510            0.0000000000
     52372      4202  MEOH      O1             10.8031578061       29.0018444024      -11.8662416558  MEOH      3510            0.0000000000
     52373      4202  MEOH      DO1            10.8088295512       29.0045663108      -11.8631369242  MEOH      3510            0.0000000000
     52374      4202  MEOH      HO1            10.7799952024       28.6551065631      -12.7718554615  MEOH      3510            0.0000000000
     52375      4202  MEOH      HO2            10.6389488101       28.4071998278      -11.1176875592  MEOH      3510            0.0000000000
     52376      4202  MEOH      H1A            12.1427977001       29.9983083680      -10.6201243416  MEOH      3510            0.0000000000
     52377      4202  MEOH      H1B            12.3184618075       30.3414945274      -12.3947917809  MEOH      3510            0.0000000000
     52378      4202  MEOH      H1C            12.8714558741       28.7634588182      -11.7264241861  MEOH      3510            0.0000000000
     52379      4202  MEOH      LP1A           10.7988755417       28.6650787486      -11.7710021858  MEOH      3510            0.0000000000
     52380      4202  MEOH      LP1B           10.5870925207       29.2483571963      -11.9889088269  MEOH      3510            0.0000000000
     52381      4203  MEOH      C1             23.1544151262      -12.0944361350      -27.8257182653  MEOH      3511            0.0000000000
     52382      4203  MEOH      DC1            23.1484575076      -12.1123376715      -27.8322825828  MEOH      3511            0.0000000000
     52383      4203  MEOH      O1             22.2404540828      -13.1221601937      -28.2176371857  MEOH      3511            0.0000000000
     52384      4203  MEOH      DO1            22.2403342448      -13.1330342822      -28.2243003220  MEOH      3511            0.0000000000
     52385      4203  MEOH      HO1            21.4503456963      -13.0105376694      -27.6661218637  MEOH      3511            0.0000000000
     52386      4203  MEOH      HO2            22.1562488533      -13.0447701076      -29.1808714531  MEOH      3511            0.0000000000
     52387      4203  MEOH      H1A            24.0853898757      -12.1653669311      -28.4278609716  MEOH      3511            0.0000000000
     52388      4203  MEOH      H1B            23.4151559933      -12.2033284649      -26.7512520440  MEOH      3511            0.0000000000
     52389      4203  MEOH      H1C            22.7106126085      -11.0901261912      -27.9951935242  MEOH      3511            0.0000000000
     52390      4203  MEOH      LP1A           22.0385020598      -13.0090256988      -28.4801556925  MEOH      3511            0.0000000000
     52391      4203  MEOH      LP1B           22.2969872588      -13.4111509760      -28.0284591538  MEOH      3511            0.0000000000
     52392      4204  MEOH      C1            -31.5618324872       24.7752333962      -16.1549657477  MEOH      3512            0.0000000000
     52393      4204  MEOH      DC1           -31.5458005856       24.7789478212      -16.1509094666  MEOH      3512            0.0000000000
     52394      4204  MEOH      O1            -30.4314778596       23.9507163686      -16.4100874294  MEOH      3512            0.0000000000
     52395      4204  MEOH      DO1           -30.4230820491       23.9560136389      -16.4086489243  MEOH      3512            0.0000000000
     52396      4204  MEOH      HO1           -30.2552475433       23.9762369610      -17.3636028072  MEOH      3512            0.0000000000
     52397      4204  MEOH      HO2           -29.7547284673       24.2103769488      -15.7655048954  MEOH      3512            0.0000000000
     52398      4204  MEOH      H1A           -31.8707457639       24.6121980741      -15.1003032087  MEOH      3512            0.0000000000
     52399      4204  MEOH      H1B           -32.4106631904       24.4909308452      -16.8129775247  MEOH      3512            0.0000000000
     52400      4204  MEOH      H1C           -31.3147250595       25.8471016894      -16.3110339437  MEOH      3512            0.0000000000
     52401      4204  MEOH      LP1A          -30.1375206374       24.1386546859      -16.3823684764  MEOH      3512            0.0000000000
     52402      4204  MEOH      LP1B          -30.5344118783       23.6215246425      -16.4695634351  MEOH      3512            0.0000000000
     52403      4205  MEOH      C1             32.7731170732      -30.0158779281       22.3421279716  MEOH      3513            0.0000000000
     52404      4205  MEOH      DC1            32.7792409263      -30.0111989786       22.3506395416  MEOH      3513            0.0000000000
     52405      4205  MEOH      O1             32.7408155570      -28.6697432046       22.8405475073  MEOH      3513            0.0000000000
     52406      4205  MEOH      DO1            32.7447338423      -28.6699785332       22.8416389646  MEOH      3513            0.0000000000
     52407      4205  MEOH      HO1            32.2296159514      -28.6516239460       23.6647117247  MEOH      3513            0.0000000000
     52408      4205  MEOH      HO2            33.6494504271      -28.3319672897       22.8060496192  MEOH      3513            0.0000000000
     52409      4205  MEOH      H1A            33.3118624834      -30.0437525797       21.3708929911  MEOH      3513            0.0000000000
     52410      4205  MEOH      H1B            31.7416670301      -30.4041194975       22.2017702413  MEOH      3513            0.0000000000
     52411      4205  MEOH      H1C            33.3146744056      -30.7017722304       23.0281204377  MEOH      3513            0.0000000000
     52412      4205  MEOH      LP1A           33.0159417079      -28.6127329673       23.0492468939  MEOH      3513            0.0000000000
     52413      4205  MEOH      LP1B           32.4666104660      -28.4988285735       22.7060121702  MEOH      3513            0.0000000000
     52414      4206  MEOH      C1             18.4398554453        3.8997001030       -5.4228217997  MEOH      3514            0.0000000000
     52415      4206  MEOH      DC1            18.4560419310        3.8865796700       -5.4137313346  MEOH      3514            0.0000000000
     52416      4206  MEOH      O1             17.0558589326        3.5856831462       -5.2898461648  MEOH      3514            0.0000000000
     52417      4206  MEOH      DO1            17.0773549942        3.5831309474       -5.2714056464  MEOH      3514            0.0000000000
     52418      4206  MEOH      HO1            16.5455489830        4.1859268542       -5.8557006048  MEOH      3514            0.0000000000
     52419      4206  MEOH      HO2            16.9806657333        2.6285595686       -5.4282674063  MEOH      3514            0.0000000000
     52420      4206  MEOH      H1A            19.0038997649        3.2684434684       -4.7033149775  MEOH      3514            0.0000000000
     52421      4206  MEOH      H1B            18.6124270761        4.9737739200       -5.1971993986  MEOH      3514            0.0000000000
     52422      4206  MEOH      H1C            18.7920232631        3.6808935119       -6.4535606150  MEOH      3514            0.0000000000
     52423      4206  MEOH      LP1A           16.9655025055        3.3414958729       -5.5237442017  MEOH      3514            0.0000000000
     52424      4206  MEOH      LP1B           16.9163629066        3.7687741403       -5.0261824650  MEOH      3514            0.0000000000
     52425      4207  MEOH      C1             30.0913151486       22.9749717577      -33.3533445370  MEOH      3515            0.0000000000
     52426      4207  MEOH      DC1            30.0879189343       22.9717108437      -33.3534066458  MEOH      3515            0.0000000000
     52427      4207  MEOH      O1             31.0486315653       23.4195240066      -32.3931518907  MEOH      3515            0.0000000000
     52428      4207  MEOH      DO1            31.0411009758       23.4204925006      -32.3929017702  MEOH      3515            0.0000000000
     52429      4207  MEOH      HO1            30.9526066030       24.3783654970      -32.2822365946  MEOH      3515            0.0000000000
     52430      4207  MEOH      HO2            30.9736119175       22.8124190878      -31.6403599731  MEOH      3515            0.0000000000
     52431      4207  MEOH      H1A            30.2745048769       21.9101748893      -33.6121304583  MEOH      3515            0.0000000000
     52432      4207  MEOH      H1B            30.2227857782       23.5568567889      -34.2905991897  MEOH      3515            0.0000000000
     52433      4207  MEOH      H1C            29.0532872466       23.1094575912      -32.9808762328  MEOH      3515            0.0000000000
     52434      4207  MEOH      LP1A           30.9124392861       23.4017114426      -32.0712289563  MEOH      3515            0.0000000000
     52435      4207  MEOH      LP1B           31.3492346902       23.5011565764      -32.5527572941  MEOH      3515            0.0000000000
     52436      4208  MEOH      C1            -16.5108747427        0.1388086821      -28.6816013739  MEOH      3516            0.0000000000
     52437      4208  MEOH      DC1           -16.5006798928        0.1306706353      -28.6732838432  MEOH      3516            0.0000000000
     52438      4208  MEOH      O1            -16.5471044269        0.8162668685      -27.4200293105  MEOH      3516            0.0000000000
     52439      4208  MEOH      DO1           -16.5494130163        0.8092373438      -27.4108126421  MEOH      3516            0.0000000000
     52440      4208  MEOH      HO1           -15.6301174022        0.9620586844      -27.1393523712  MEOH      3516            0.0000000000
     52441      4208  MEOH      HO2           -17.1348520085        1.5769232899      -27.5498545345  MEOH      3516            0.0000000000
     52442      4208  MEOH      H1A           -17.5485293044       -0.0178512005      -29.0463638887  MEOH      3516            0.0000000000
     52443      4208  MEOH      H1B           -16.0242617670       -0.8526664857      -28.5611613329  MEOH      3516            0.0000000000
     52444      4208  MEOH      H1C           -15.9629328048        0.7270286363      -29.4484637603  MEOH      3516            0.0000000000
     52445      4208  MEOH      LP1A          -16.5543259899        1.1625655869      -27.4702791529  MEOH      3516            0.0000000000
     52446      4208  MEOH      LP1B          -16.5574144089        0.5831084028      -27.1592020992  MEOH      3516            0.0000000000
     52447      4209  MEOH      C1             19.1256904228       29.2322519597       -2.9701342640  MEOH      3517            0.0000000000
     52448      4209  MEOH      DC1            19.1393059964       29.2356354043       -2.9919156916  MEOH      3517            0.0000000000
     52449      4209  MEOH      O1             18.9595502587       27.9908622648       -3.6588119433  MEOH      3517            0.0000000000
     52450      4209  MEOH      DO1            18.9760025285       27.9904555874       -3.6856237197  MEOH      3517            0.0000000000
     52451      4209  MEOH      HO1            18.3877921589       27.4701262985       -3.0732978700  MEOH      3517            0.0000000000
     52452      4209  MEOH      HO2            18.6308817573       28.2237423045       -4.5412199573  MEOH      3517            0.0000000000
     52453      4209  MEOH      H1A            19.7573164875       29.9234394435       -3.5681554820  MEOH      3517            0.0000000000
     52454      4209  MEOH      H1B            19.6077802535       29.0475190628       -1.9863740534  MEOH      3517            0.0000000000
     52455      4209  MEOH      H1C            18.1343951332       29.6987027587       -2.7855311707  MEOH      3517            0.0000000000
     52456      4209  MEOH      LP1A           18.6834784554       28.0089117791       -3.8731914537  MEOH      3517            0.0000000000
     52457      4209  MEOH      LP1B           19.2144349232       27.7687228978       -3.5683248757  MEOH      3517            0.0000000000
     52458      4210  MEOH      C1              6.3246254823        9.8152142653      -10.1372472914  MEOH      3518            0.0000000000
     52459      4210  MEOH      DC1             6.3231650823        9.8201350397      -10.1512281325  MEOH      3518            0.0000000000
     52460      4210  MEOH      O1              6.7709436049       10.0408824526       -8.8219870688  MEOH      3518            0.0000000000
     52461      4210  MEOH      DO1             6.7580533663       10.0579577800       -8.8289934451  MEOH      3518            0.0000000000
     52462      4210  MEOH      HO1             6.0853112836        9.7419836464       -8.2043562534  MEOH      3518            0.0000000000
     52463      4210  MEOH      HO2             7.6315314318        9.5947037837       -8.7871562240  MEOH      3518            0.0000000000
     52464      4210  MEOH      H1A             7.1389403447       10.0281466283      -10.8624176956  MEOH      3518            0.0000000000
     52465      4210  MEOH      H1B             5.4466709948       10.4598402010      -10.3562777035  MEOH      3518            0.0000000000
     52466      4210  MEOH      H1C             6.0418062379        8.7424776157      -10.1969997444  MEOH      3518            0.0000000000
     52467      4210  MEOH      LP1A            6.9493048185        9.7626770137       -8.7067090950  MEOH      3518            0.0000000000
     52468      4210  MEOH      LP1B            6.6783261577       10.3618447243       -8.7175589662  MEOH      3518            0.0000000000
     52469      4211  MEOH      C1             -8.9442044598      -28.0242008014       -9.0062575683  MEOH      3519            0.0000000000
     52470      4211  MEOH      DC1            -8.9455699458      -28.0176510485       -8.9989133284  MEOH      3519            0.0000000000
     52471      4211  MEOH      O1             -8.6304003211      -27.1895146551       -7.8885166364  MEOH      3519            0.0000000000
     52472      4211  MEOH      DO1            -8.6293244786      -27.1898862581       -7.8755463613  MEOH      3519            0.0000000000
     52473      4211  MEOH      HO1            -8.1728732653      -26.4135031990       -8.2482042969  MEOH      3519            0.0000000000
     52474      4211  MEOH      HO2            -9.4591401654      -27.0874083846       -7.3948927101  MEOH      3519            0.0000000000
     52475      4211  MEOH      H1A            -9.4154021277      -28.9631391316       -8.6447488273  MEOH      3519            0.0000000000
     52476      4211  MEOH      H1B            -8.0216302543      -28.2801968958       -9.5698565723  MEOH      3519            0.0000000000
     52477      4211  MEOH      H1C            -9.6481391404      -27.5014465308       -9.6885514482  MEOH      3519            0.0000000000
     52478      4211  MEOH      LP1A           -8.8950059571      -26.9692320132       -7.8255927535  MEOH      3519            0.0000000000
     52479      4211  MEOH      LP1B           -8.3181567933      -27.2776481763       -7.7572289301  MEOH      3519            0.0000000000
     52480      4212  MEOH      C1             21.4367087589      -35.6500593726       31.1128034552  MEOH      3520            0.0000000000
     52481      4212  MEOH      DC1            21.4432927730      -35.6346775615       31.1243142654  MEOH      3520            0.0000000000
     52482      4212  MEOH      O1             20.9942404191      -36.7275125897       30.2849513160  MEOH      3520            0.0000000000
     52483      4212  MEOH      DO1            21.0028300231      -36.7199807463       30.3042639694  MEOH      3520            0.0000000000
     52484      4212  MEOH      HO1            21.4664273609      -36.7176399840       29.4376957326  MEOH      3520            0.0000000000
     52485      4212  MEOH      HO2            20.9875650294      -37.5196142294       30.8447998960  MEOH      3520            0.0000000000
     52486      4212  MEOH      H1A            20.7343732131      -35.5502757411       31.9678408860  MEOH      3520            0.0000000000
     52487      4212  MEOH      H1B            21.4397432977      -34.6989528881       30.5386011843  MEOH      3520            0.0000000000
     52488      4212  MEOH      H1C            22.4542608711      -35.8624235130       31.5049898538  MEOH      3520            0.0000000000
     52489      4212  MEOH      LP1A           21.1865780670      -37.0131948773       30.3473360874  MEOH      3520            0.0000000000
     52490      4212  MEOH      LP1B           20.7204936504      -36.6256808161       30.0920964572  MEOH      3520            0.0000000000
     52491      4213  MEOH      C1            -13.7737162083      -21.6994725012       15.2740773601  MEOH      3521            0.0000000000
     52492      4213  MEOH      DC1           -13.7526767588      -21.6856279130       15.2572904777  MEOH      3521            0.0000000000
     52493      4213  MEOH      O1            -14.7391228196      -22.2548578006       14.3842494812  MEOH      3521            0.0000000000
     52494      4213  MEOH      DO1           -14.7115329354      -22.2546812927       14.3561038689  MEOH      3521            0.0000000000
     52495      4213  MEOH      HO1           -15.5721095859      -22.3158257038       14.8775201602  MEOH      3521            0.0000000000
     52496      4213  MEOH      HO2           -14.6632319996      -21.7636607828       13.5512632430  MEOH      3521            0.0000000000
     52497      4213  MEOH      H1A           -12.7497971021      -21.8577567887       14.8730078539  MEOH      3521            0.0000000000
     52498      4213  MEOH      H1B           -13.8575920639      -22.1928693729       16.2659671563  MEOH      3521            0.0000000000
     52499      4213  MEOH      H1C           -13.9551551571      -20.6097909039       15.3923775105  MEOH      3521            0.0000000000
     52500      4213  MEOH      LP1A          -14.8977319618      -21.9994104652       14.2051132233  MEOH      3521            0.0000000000
     52501      4213  MEOH      LP1B          -14.7346934089      -22.6041724874       14.4056884628  MEOH      3521            0.0000000000
     52502      4214  MEOH      C1             29.9518419417       17.6351570362      -22.1836043524  MEOH      3522            0.0000000000
     52503      4214  MEOH      DC1            29.9476650822       17.6249651292      -22.1749555698  MEOH      3522            0.0000000000
     52504      4214  MEOH      O1             28.6613227128       17.0800186719      -22.4385281662  MEOH      3522            0.0000000000
     52505      4214  MEOH      DO1            28.6685891631       17.0683691392      -22.4225943530  MEOH      3522            0.0000000000
     52506      4214  MEOH      HO1            28.0479874424       17.4207098573      -21.7687152355  MEOH      3522            0.0000000000
     52507      4214  MEOH      HO2            28.4783534181       17.2953194164      -23.3664655714  MEOH      3522            0.0000000000
     52508      4214  MEOH      H1A            30.6575568173       17.3625640898      -22.9972262547  MEOH      3522            0.0000000000
     52509      4214  MEOH      H1B            30.3481535174       17.2284746983      -21.2286867577  MEOH      3522            0.0000000000
     52510      4214  MEOH      H1C            29.8932196966       18.7433279146      -22.1302964072  MEOH      3522            0.0000000000
     52511      4214  MEOH      LP1A           28.4840291422       17.2856930219      -22.6593562703  MEOH      3522            0.0000000000
     52512      4214  MEOH      LP1B           28.6264569841       16.7755508678      -22.2694609097  MEOH      3522            0.0000000000
     52513      4215  MEOH      C1            -20.6891204318      -33.6335833099       25.5711254469  MEOH      3523            0.0000000000
     52514      4215  MEOH      DC1           -20.6889879209      -33.6393088757       25.5665942140  MEOH      3523            0.0000000000
     52515      4215  MEOH      O1            -21.9533648869      -33.0544055366       25.8947901990  MEOH      3523            0.0000000000
     52516      4215  MEOH      DO1           -21.9483818503      -33.0599500436       25.8904400004  MEOH      3523            0.0000000000
     52517      4215  MEOH      HO1           -22.6293390866      -33.4011354804       25.2916838838  MEOH      3523            0.0000000000
     52518      4215  MEOH      HO2           -22.0528298741      -33.1540546660       26.8545176435  MEOH      3523            0.0000000000
     52519      4215  MEOH      H1A           -19.8940130941      -33.1504561740       26.1783432778  MEOH      3523            0.0000000000
     52520      4215  MEOH      H1B           -20.4545004060      -33.4613034322       24.4989341913  MEOH      3523            0.0000000000
     52521      4215  MEOH      H1C           -20.7029088662      -34.7233187282       25.7870133746  MEOH      3523            0.0000000000
     52522      4215  MEOH      LP1A          -22.1165647215      -33.2497769596       26.1349897433  MEOH      3523            0.0000000000
     52523      4215  MEOH      LP1B          -21.9972475760      -32.7559321214       25.7173418120  MEOH      3523            0.0000000000
     52524      4216  MEOH      C1             -4.3781392091       14.8361349854       -5.4677437082  MEOH      3524            0.0000000000
     52525      4216  MEOH      DC1            -4.3782035678       14.8406328841       -5.4575870929  MEOH      3524            0.0000000000
     52526      4216  MEOH      O1             -3.0886188655       14.7788998816       -6.0799233283  MEOH      3524            0.0000000000
     52527      4216  MEOH      DO1            -3.0814045191       14.7876834527       -6.0753260276  MEOH      3524            0.0000000000
     52528      4216  MEOH      HO1            -3.2401383091       14.7114753277       -7.0356407492  MEOH      3524            0.0000000000
     52529      4216  MEOH      HO2            -2.5722088998       15.5043556903       -5.6953006339  MEOH      3524            0.0000000000
     52530      4216  MEOH      H1A            -4.2798149296       14.8158935855       -4.3612882767  MEOH      3524            0.0000000000
     52531      4216  MEOH      H1B            -4.9979953317       13.9766693581       -5.8015373936  MEOH      3524            0.0000000000
     52532      4216  MEOH      H1C            -4.8838853363       15.7774791909       -5.7717386789  MEOH      3524            0.0000000000
     52533      4216  MEOH      LP1A           -2.9747736337       15.1024248607       -6.1497148117  MEOH      3524            0.0000000000
     52534      4216  MEOH      LP1B           -2.9814186780       14.4464790900       -6.1023852314  MEOH      3524            0.0000000000
     52535      4217  MEOH      C1            -14.5710878587      -32.6273216530       11.0026568609  MEOH      3525            0.0000000000
     52536      4217  MEOH      DC1           -14.5664186149      -32.6158207794       10.9942215748  MEOH      3525            0.0000000000
     52537      4217  MEOH      O1            -14.9128301094      -33.7683615354       11.7894151398  MEOH      3525            0.0000000000
     52538      4217  MEOH      DO1           -14.9041853950      -33.7607335125       11.7783971506  MEOH      3525            0.0000000000
     52539      4217  MEOH      HO1           -15.4469939414      -34.3769805532       11.2554189864  MEOH      3525            0.0000000000
     52540      4217  MEOH      HO2           -14.0947359859      -34.0668560230       12.2166423002  MEOH      3525            0.0000000000
     52541      4217  MEOH      H1A           -14.1514088177      -31.8429839789       11.6682430063  MEOH      3525            0.0000000000
     52542      4217  MEOH      H1B           -15.4771732755      -32.2101497913       10.5134760602  MEOH      3525            0.0000000000
     52543      4217  MEOH      H1C           -13.8160729804      -32.9034362687       10.2358229463  MEOH      3525            0.0000000000
     52544      4217  MEOH      LP1A          -14.6648675288      -34.0134723570       11.7588333847  MEOH      3525            0.0000000000
     52545      4217  MEOH      LP1B          -15.2123720724      -33.7101983881       11.9608551022  MEOH      3525            0.0000000000
     52546      4218  MEOH      C1             -3.1501739164      -35.8923075125        5.9903030474  MEOH      3526            0.0000000000
     52547      4218  MEOH      DC1            -3.1641490946      -35.8837752386        5.9882425379  MEOH      3526            0.0000000000
     52548      4218  MEOH      O1             -3.9912042427      -36.5739381390        5.0604137381  MEOH      3526            0.0000000000
     52549      4218  MEOH      DO1            -4.0023860063      -36.5772807412        5.0686225703  MEOH      3526            0.0000000000
     52550      4218  MEOH      HO1            -4.1639556347      -37.4612947966        5.4120600361  MEOH      3526            0.0000000000
     52551      4218  MEOH      HO2            -4.7045313169      -35.9595435885        4.8267819287  MEOH      3526            0.0000000000
     52552      4218  MEOH      H1A            -2.7610241623      -34.9611418400        5.5257452364  MEOH      3526            0.0000000000
     52553      4218  MEOH      H1B            -2.2858838462      -36.5349651541        6.2629105128  MEOH      3526            0.0000000000
     52554      4218  MEOH      H1C            -3.7227295452      -35.6399391049        6.9083505627  MEOH      3526            0.0000000000
     52555      4218  MEOH      LP1A           -4.3274325911      -36.5126139606        5.1358447853  MEOH      3526            0.0000000000
     52556      4218  MEOH      LP1B           -3.7960929645      -36.7403441342        4.8222108123  MEOH      3526            0.0000000000
     52557      4219  MEOH      C1            -22.4094704267        7.3626540672       36.6069419206  MEOH      3527            0.0000000000
     52558      4219  MEOH      DC1           -22.4279669352        7.3814244276       36.5955197347  MEOH      3527            0.0000000000
     52559      4219  MEOH      O1            -21.6485637083        6.1596619581       36.6218327728  MEOH      3527            0.0000000000
     52560      4219  MEOH      DO1           -21.6563066055        6.1805035909       36.6138243909  MEOH      3527            0.0000000000
     52561      4219  MEOH      HO1           -22.2304211506        5.4033965913       36.7962019566  MEOH      3527            0.0000000000
     52562      4219  MEOH      HO2           -21.0698760063        6.1854964135       35.8437883496  MEOH      3527            0.0000000000
     52563      4219  MEOH      H1A           -21.7132902266        8.2279641192       36.6368190876  MEOH      3527            0.0000000000
     52564      4219  MEOH      H1B           -23.0708315423        7.4065471586       37.4985673307  MEOH      3527            0.0000000000
     52565      4219  MEOH      H1C           -23.0131203985        7.3991161427       35.6749557465  MEOH      3527            0.0000000000
     52566      4219  MEOH      LP1A          -21.6300769220        6.0257084642       36.2990097560  MEOH      3527            0.0000000000
     52567      4219  MEOH      LP1B          -21.5295349086        6.0972987718       36.9450091609  MEOH      3527            0.0000000000
     52568      4220  MEOH      C1            -15.2264182227      -34.0984777288       -5.6126480352  MEOH      3528            0.0000000000
     52569      4220  MEOH      DC1           -15.2251024882      -34.0787760964       -5.6115283984  MEOH      3528            0.0000000000
     52570      4220  MEOH      O1            -13.8652698963      -34.3290349921       -5.2522963766  MEOH      3528            0.0000000000
     52571      4220  MEOH      DO1           -13.8653679908      -34.3053652375       -5.2525913934  MEOH      3528            0.0000000000
     52572      4220  MEOH      HO1           -13.4733564099      -34.9327614849       -5.9025410544  MEOH      3528            0.0000000000
     52573      4220  MEOH      HO2           -13.4775520544      -33.4664901827       -5.0364461304  MEOH      3528            0.0000000000
     52574      4220  MEOH      H1A           -15.7598356402      -33.5729057613       -4.7919404342  MEOH      3528            0.0000000000
     52575      4220  MEOH      H1B           -15.7542680545      -35.0612043922       -5.7825095280  MEOH      3528            0.0000000000
     52576      4220  MEOH      H1C           -15.2712176272      -33.4897401828       -6.5409543509  MEOH      3528            0.0000000000
     52577      4220  MEOH      LP1A          -13.6596348739      -34.0878317577       -5.4007390838  MEOH      3528            0.0000000000
     52578      4220  MEOH      LP1B          -13.8437389032      -34.6020120187       -5.0343056445  MEOH      3528            0.0000000000
     52579      4221  MEOH      C1             -0.6114078043        7.8629709934       -1.0609123095  MEOH      3529            0.0000000000
     52580      4221  MEOH      DC1            -0.5935891973        7.8527769346       -1.0461711372  MEOH      3529            0.0000000000
     52581      4221  MEOH      O1             -0.7267394921        8.5652174202       -2.2986859441  MEOH      3529            0.0000000000
     52582      4221  MEOH      DO1            -0.7058113604        8.5626163841       -2.2888440730  MEOH      3529            0.0000000000
     52583      4221  MEOH      HO1             0.0635269803        9.1102096388       -2.4378347311  MEOH      3529            0.0000000000
     52584      4221  MEOH      HO2            -1.0018961035        7.9077407307       -2.9566473730  MEOH      3529            0.0000000000
     52585      4221  MEOH      H1A            -1.5723403704        7.3432302494       -0.8589242815  MEOH      3529            0.0000000000
     52586      4221  MEOH      H1B            -0.4097087930        8.5779893623       -0.2348449752  MEOH      3529            0.0000000000
     52587      4221  MEOH      H1C             0.1999459721        7.1070248182       -1.1285246761  MEOH      3529            0.0000000000
     52588      4221  MEOH      LP1A           -0.5961721613        8.3711395718       -2.5590433155  MEOH      3529            0.0000000000
     52589      4221  MEOH      LP1B           -0.8869016046        8.8722120742       -2.2476724146  MEOH      3529            0.0000000000
     52590      4222  MEOH      C1              7.0149036351      -34.5419665834        1.7010895063  MEOH      3530            0.0000000000
     52591      4222  MEOH      DC1             7.0194895104      -34.5332202460        1.7118672236  MEOH      3530            0.0000000000
     52592      4222  MEOH      O1              7.7785104242      -35.5691230685        2.3335798897  MEOH      3530            0.0000000000
     52593      4222  MEOH      DO1             7.7820308633      -35.5671627808        2.3346754878  MEOH      3530            0.0000000000
     52594      4222  MEOH      HO1             7.7824908235      -36.3244053018        1.7249478943  MEOH      3530            0.0000000000
     52595      4222  MEOH      HO2             8.6102746899      -35.1562319122        2.6139173636  MEOH      3530            0.0000000000
     52596      4222  MEOH      H1A             6.9209922913      -33.6653036722        2.3770804826  MEOH      3530            0.0000000000
     52597      4222  MEOH      H1B             6.0021857827      -34.9160205654        1.4387782980  MEOH      3530            0.0000000000
     52598      4222  MEOH      H1C             7.5267268284      -34.1897107000        0.7800716927  MEOH      3530            0.0000000000
     52599      4222  MEOH      LP1A            8.1165959923      -35.5360725606        2.2492839079  MEOH      3530            0.0000000000
     52600      4222  MEOH      LP1B            7.5702525936      -35.7675520522        2.5329654820  MEOH      3530            0.0000000000
     52601      4223  MEOH      C1             34.6917226405      -22.2285622927      -13.2403452339  MEOH      3531            0.0000000000
     52602      4223  MEOH      DC1            34.6827394846      -22.2132889484      -13.2230020618  MEOH      3531            0.0000000000
     52603      4223  MEOH      O1             35.1426214699      -21.0007432545      -13.8149614086  MEOH      3531            0.0000000000
     52604      4223  MEOH      DO1            35.1340743048      -20.9803960899      -13.7848494414  MEOH      3531            0.0000000000
     52605      4223  MEOH      HO1            34.6647917695      -20.2409178942      -13.4472057835  MEOH      3531            0.0000000000
     52606      4223  MEOH      HO2            36.1108463274      -21.0446306917      -13.8538782191  MEOH      3531            0.0000000000
     52607      4223  MEOH      H1A            35.0700106087      -23.0701066963      -13.8592331320  MEOH      3531            0.0000000000
     52608      4223  MEOH      H1B            33.5816777212      -22.2743899942      -13.2357518657  MEOH      3531            0.0000000000
     52609      4223  MEOH      H1C            35.0982500853      -22.3446476195      -12.2129306949  MEOH      3531            0.0000000000
     52610      4223  MEOH      LP1A           35.4105459161      -20.8730373909      -13.6294682725  MEOH      3531            0.0000000000
     52611      4223  MEOH      LP1B           34.9577554878      -20.9284788777      -14.1032363269  MEOH      3531            0.0000000000
     52612      4224  MEOH      C1             17.3223124061      -14.8327567080      -31.0835738017  MEOH      3532            0.0000000000
     52613      4224  MEOH      DC1            17.3275889396      -14.8378126392      -31.0902627752  MEOH      3532            0.0000000000
     52614      4224  MEOH      O1             18.5642736264      -14.3851210288      -31.6182126943  MEOH      3532            0.0000000000
     52615      4224  MEOH      DO1            18.5717765667      -14.3880465471      -31.6152770566  MEOH      3532            0.0000000000
     52616      4224  MEOH      HO1            19.2149947082      -15.0949472239      -31.5015557303  MEOH      3532            0.0000000000
     52617      4224  MEOH      HO2            18.3686829608      -14.0084671738      -32.4904375306  MEOH      3532            0.0000000000
     52618      4224  MEOH      H1A            16.5832910734      -14.0034810638      -31.1052619496  MEOH      3532            0.0000000000
     52619      4224  MEOH      H1B            17.4453787244      -15.1645959145      -30.0304553735  MEOH      3532            0.0000000000
     52620      4224  MEOH      H1C            16.9331483666      -15.6761883365      -31.6930780584  MEOH      3532            0.0000000000
     52621      4224  MEOH      LP1A           18.5843052946      -14.4658554144      -31.9581842979  MEOH      3532            0.0000000000
     52622      4224  MEOH      LP1B           18.7481656297      -14.2191322017      -31.3709649635  MEOH      3532            0.0000000000
     52623      4225  MEOH      C1             10.6364986791        4.8220905661      -32.5421040822  MEOH      3533            0.0000000000
     52624      4225  MEOH      DC1            10.6405228582        4.8174884791      -32.5319229022  MEOH      3533            0.0000000000
     52625      4225  MEOH      O1             11.7689375050        5.6381764530      -32.2249176269  MEOH      3533            0.0000000000
     52626      4225  MEOH      DO1            11.7695285856        5.6315556501      -32.2118678506  MEOH      3533            0.0000000000
     52627      4225  MEOH      HO1            12.3302869873        5.6733766117      -33.0152009352  MEOH      3533            0.0000000000
     52628      4225  MEOH      HO2            11.4027889376        6.4639597888      -31.8714814806  MEOH      3533            0.0000000000
     52629      4225  MEOH      H1A             9.8846684610        4.8392988832      -31.7243167030  MEOH      3533            0.0000000000
     52630      4225  MEOH      H1B            10.9591324253        3.7671906329      -32.6740684591  MEOH      3533            0.0000000000
     52631      4225  MEOH      H1C            10.1538334980        5.1904748139      -33.4725063450  MEOH      3533            0.0000000000
     52632      4225  MEOH      LP1A           11.6987951740        5.9734428943      -32.2968652938  MEOH      3533            0.0000000000
     52633      4225  MEOH      LP1B           12.0243601238        5.4410103227      -32.0893270562  MEOH      3533            0.0000000000
     52634      4226  MEOH      C1            -26.5953638121       14.3405484880       14.9777772421  MEOH      3534            0.0000000000
     52635      4226  MEOH      DC1           -26.6014273320       14.3507267507       14.9736855303  MEOH      3534            0.0000000000
     52636      4226  MEOH      O1            -25.4213213430       13.5658553067       14.7749105579  MEOH      3534            0.0000000000
     52637      4226  MEOH      DO1           -25.4369516559       13.5740390650       14.7708709298  MEOH      3534            0.0000000000
     52638      4226  MEOH      HO1           -24.6350093183       14.1289355016       14.8494363593  MEOH      3534            0.0000000000
     52639      4226  MEOH      HO2           -25.5050343118       12.7942804054       15.3567733514  MEOH      3534            0.0000000000
     52640      4226  MEOH      H1A           -27.4859896169       13.6835355888       14.8806138433  MEOH      3534            0.0000000000
     52641      4226  MEOH      H1B           -26.6565131769       15.1563126142       14.2260388249  MEOH      3534            0.0000000000
     52642      4226  MEOH      H1C           -26.5796753143       14.7625612925       16.0053861486  MEOH      3534            0.0000000000
     52643      4226  MEOH      LP1A          -25.3113106433       13.4332030633       15.0795431699  MEOH      3534            0.0000000000
     52644      4226  MEOH      LP1B          -25.3399970365       13.5586272276       14.4345664496  MEOH      3534            0.0000000000
     52645      4227  MEOH      C1             14.3463224759       25.1497421750        2.9603551641  MEOH      3535            0.0000000000
     52646      4227  MEOH      DC1            14.3516496055       25.1303860417        2.9570709032  MEOH      3535            0.0000000000
     52647      4227  MEOH      O1             14.2044411293       23.8151147716        3.4405967724  MEOH      3535            0.0000000000
     52648      4227  MEOH      DO1            14.2081016030       23.8044174764        3.4395860809  MEOH      3535            0.0000000000
     52649      4227  MEOH      HO1            15.0907527156       23.5197434550        3.7015710202  MEOH      3535            0.0000000000
     52650      4227  MEOH      HO2            13.5023928363       23.8613287307        4.1083485707  MEOH      3535            0.0000000000
     52651      4227  MEOH      H1A            13.3546760834       25.5331059874        2.6378793979  MEOH      3535            0.0000000000
     52652      4227  MEOH      H1B            15.0455060150       25.1842073297        2.0976411134  MEOH      3535            0.0000000000
     52653      4227  MEOH      H1C            14.7294645128       25.8095987108        3.7678900130  MEOH      3535            0.0000000000
     52654      4227  MEOH      LP1A           14.1356646499       23.8180515453        3.7837602483  MEOH      3535            0.0000000000
     52655      4227  MEOH      LP1B           14.2381060616       23.5884763008        3.1760184742  MEOH      3535            0.0000000000
     52656      4228  MEOH      C1             23.5787701378       34.6902871763       21.9038575983  MEOH      3536            0.0000000000
     52657      4228  MEOH      DC1            23.5840842535       34.6847069503       21.8943849304  MEOH      3536            0.0000000000
     52658      4228  MEOH      O1             24.2706701175       33.5105615527       21.5143729473  MEOH      3536            0.0000000000
     52659      4228  MEOH      DO1            24.2733883156       33.5154222234       21.5047645637  MEOH      3536            0.0000000000
     52660      4228  MEOH      HO1            24.8047492061       33.7044281469       20.7281953134  MEOH      3536            0.0000000000
     52661      4228  MEOH      HO2            24.7058248686       33.1821073915       22.3166560685  MEOH      3536            0.0000000000
     52662      4228  MEOH      H1A            22.8447866569       34.4528661489       22.7033702658  MEOH      3536            0.0000000000
     52663      4228  MEOH      H1B            23.0472321385       35.0915522509       21.0146024625  MEOH      3536            0.0000000000
     52664      4228  MEOH      H1C            24.2806310220       35.4796587677       22.2482480604  MEOH      3536            0.0000000000
     52665      4228  MEOH      LP1A           24.5792824001       33.4930652550       21.6785446215  MEOH      3536            0.0000000000
     52666      4228  MEOH      LP1B           24.0737785051       33.3237508213       21.2933855187  MEOH      3536            0.0000000000
     52667      4229  MEOH      C1              3.3311273578       24.6363599245        1.8063955942  MEOH      3537            0.0000000000
     52668      4229  MEOH      DC1             3.3303351677       24.6315228483        1.7967391608  MEOH      3537            0.0000000000
     52669      4229  MEOH      O1              1.9621184353       24.9628235509        2.0167196973  MEOH      3537            0.0000000000
     52670      4229  MEOH      DO1             1.9617632707       24.9558777979        2.0110795727  MEOH      3537            0.0000000000
     52671      4229  MEOH      HO1             1.5386217437       25.1580056283        1.1661584068  MEOH      3537            0.0000000000
     52672      4229  MEOH      HO2             1.6140022077       24.3141919564        2.6483779494  MEOH      3537            0.0000000000
     52673      4229  MEOH      H1A             3.8600770688       24.6138009139        2.7831372674  MEOH      3537            0.0000000000
     52674      4229  MEOH      H1B             3.8219055580       25.3915868137        1.1559418261  MEOH      3537            0.0000000000
     52675      4229  MEOH      H1C             3.4035430493       23.6331615211        1.3345164457  MEOH      3537            0.0000000000
     52676      4229  MEOH      LP1A            1.7670059692       24.6724015145        2.0074371167  MEOH      3537            0.0000000000
     52677      4229  MEOH      LP1B            1.9282796551       25.3066591009        2.0726844322  MEOH      3537            0.0000000000
     52678      4230  MEOH      C1             27.6309663910        8.5889560750      -35.0812034105  MEOH      3538            0.0000000000
     52679      4230  MEOH      DC1            27.6330681098        8.5844508653      -35.0875108006  MEOH      3538            0.0000000000
     52680      4230  MEOH      O1             27.3476538406        7.7106325884      -33.9913886288  MEOH      3538            0.0000000000
     52681      4230  MEOH      DO1            27.3531410730        7.7057961298      -33.9920321506  MEOH      3538            0.0000000000
     52682      4230  MEOH      HO1            26.6573746276        8.1421095455      -33.4639019051  MEOH      3538            0.0000000000
     52683      4230  MEOH      HO2            27.1769021041        6.8438552997      -34.3919394716  MEOH      3538            0.0000000000
     52684      4230  MEOH      H1A            28.4763222767        8.1935274769      -35.6839725636  MEOH      3538            0.0000000000
     52685      4230  MEOH      H1B            27.9063630026        9.5895243079      -34.6845411890  MEOH      3538            0.0000000000
     52686      4230  MEOH      H1C            26.7302733427        8.6996816083      -35.7221502797  MEOH      3538            0.0000000000
     52687      4230  MEOH      LP1A           27.0967999253        7.4841190557      -34.0822948041  MEOH      3538            0.0000000000
     52688      4230  MEOH      LP1B           27.5588567568        7.7824939060      -33.7217049637  MEOH      3538            0.0000000000
     52689      4231  MEOH      C1             11.6704378788       -6.5897859218       16.7230357632  MEOH      3539            0.0000000000
     52690      4231  MEOH      DC1            11.6856520708       -6.5869929606       16.7099559515  MEOH      3539            0.0000000000
     52691      4231  MEOH      O1             12.2564264693       -6.5663926112       15.4221501788  MEOH      3539            0.0000000000
     52692      4231  MEOH      DO1            12.2712572144       -6.5707922746       15.4085488194  MEOH      3539            0.0000000000
     52693      4231  MEOH      HO1            13.0747752073       -7.0820757499       15.4947879430  MEOH      3539            0.0000000000
     52694      4231  MEOH      HO2            11.5553676422       -6.8610264737       14.8199812589  MEOH      3539            0.0000000000
     52695      4231  MEOH      H1A            10.7782229347       -5.9280005041       16.7407432489  MEOH      3539            0.0000000000
     52696      4231  MEOH      H1B            12.3889060918       -6.2203504872       17.4856902633  MEOH      3539            0.0000000000
     52697      4231  MEOH      H1C            11.3459554217       -7.6204670348       16.9813545197  MEOH      3539            0.0000000000
     52698      4231  MEOH      LP1A           12.1361363897       -6.8343688562       15.2318372026  MEOH      3539            0.0000000000
     52699      4231  MEOH      LP1B           12.4662947404       -6.2881012856       15.3903815327  MEOH      3539            0.0000000000
     52700      4232  MEOH      C1             19.4582459086       15.1450979957       10.6593596546  MEOH      3540            0.0000000000
     52701      4232  MEOH      DC1            19.4546573519       15.1459065099       10.6645442003  MEOH      3540            0.0000000000
     52702      4232  MEOH      O1             18.6031421441       16.0567929968       11.3507556132  MEOH      3540            0.0000000000
     52703      4232  MEOH      DO1            18.5924874827       16.0550317287       11.3499978084  MEOH      3540            0.0000000000
     52704      4232  MEOH      HO1            19.0600793749       16.9111008273       11.3983633626  MEOH      3540            0.0000000000
     52705      4232  MEOH      HO2            17.7260003627       15.9703761281       10.9457192920  MEOH      3540            0.0000000000
     52706      4232  MEOH      H1A            19.0128796535       14.1273909397       10.6749239631  MEOH      3540            0.0000000000
     52707      4232  MEOH      H1B            20.4534846418       15.1093562872       11.1518466029  MEOH      3540            0.0000000000
     52708      4232  MEOH      H1C            19.5784079876       15.4693487413        9.6035454993  MEOH      3540            0.0000000000
     52709      4232  MEOH      LP1A           18.3912178664       16.2179002407       11.1235276296  MEOH      3540            0.0000000000
     52710      4232  MEOH      LP1B           18.6638774217       16.0402159930       11.6950468112  MEOH      3540            0.0000000000
     52711      4233  MEOH      C1              6.8969302479      -20.0620765005        9.4641309323  MEOH      3541            0.0000000000
     52712      4233  MEOH      DC1             6.8927864582      -20.0640611373        9.4636875118  MEOH      3541            0.0000000000
     52713      4233  MEOH      O1              5.9028809276      -21.0169705253        9.8467347339  MEOH      3541            0.0000000000
     52714      4233  MEOH      DO1             5.8935465334      -21.0255701378        9.8282824254  MEOH      3541            0.0000000000
     52715      4233  MEOH      HO1             6.2227191985      -21.4238999790       10.6671077595  MEOH      3541            0.0000000000
     52716      4233  MEOH      HO2             5.0537484275      -20.5489969297        9.8171592170  MEOH      3541            0.0000000000
     52717      4233  MEOH      H1A             6.6465202294      -19.6255103367        8.4736634623  MEOH      3541            0.0000000000
     52718      4233  MEOH      H1B             7.8977913739      -20.5397605634        9.3976783746  MEOH      3541            0.0000000000
     52719      4233  MEOH      H1C             6.9399011814      -19.2478152339       10.2187520883  MEOH      3541            0.0000000000
     52720      4233  MEOH      LP1A            5.6617621519      -20.8641550857       10.0492419620  MEOH      3541            0.0000000000
     52721      4233  MEOH      LP1B            5.9713919172      -21.3267981066        9.6990420998  MEOH      3541            0.0000000000
     52722      4234  MEOH      C1             10.0978409531      -18.8328569443      -21.2656499436  MEOH      3542            0.0000000000
     52723      4234  MEOH      DC1            10.1142770025      -18.8475130602      -21.2560014957  MEOH      3542            0.0000000000
     52724      4234  MEOH      O1             10.5433234347      -17.5114097287      -20.9736751601  MEOH      3542            0.0000000000
     52725      4234  MEOH      DO1            10.5511555334      -17.5256385334      -20.9587751811  MEOH      3542            0.0000000000
     52726      4234  MEOH      HO1             9.7620788035      -16.9366903848      -20.9577220471  MEOH      3542            0.0000000000
     52727      4234  MEOH      HO2            11.1383402732      -17.5816396980      -20.2108365698  MEOH      3542            0.0000000000
     52728      4234  MEOH      H1A            10.9793882226      -19.4758733597      -21.4747559002  MEOH      3542            0.0000000000
     52729      4234  MEOH      H1B             9.4285358084      -18.8237594607      -22.1523679717  MEOH      3542            0.0000000000
     52730      4234  MEOH      H1C             9.5514411490      -19.2497555010      -20.3927445373  MEOH      3542            0.0000000000
     52731      4234  MEOH      LP1A           10.5495567002      -17.4609583312      -20.6273865480  MEOH      3542            0.0000000000
     52732      4234  MEOH      LP1B           10.6227776817      -17.3435778006      -21.2703559086  MEOH      3542            0.0000000000
     52733      4235  MEOH      C1             -6.7304490286      -15.1980368864       36.4428267155  MEOH      3543            0.0000000000
     52734      4235  MEOH      DC1            -6.7295167160      -15.1988960229       36.4341597695  MEOH      3543            0.0000000000
     52735      4235  MEOH      O1             -6.2749022845      -16.5155361660       36.1628480007  MEOH      3543            0.0000000000
     52736      4235  MEOH      DO1            -6.2548245697      -16.5167334809       36.1560156360  MEOH      3543            0.0000000000
     52737      4235  MEOH      HO1            -5.9919515795      -16.8586184871       37.0248998665  MEOH      3543            0.0000000000
     52738      4235  MEOH      HO2            -7.0358903807      -16.9439684814       35.7406598077  MEOH      3543            0.0000000000
     52739      4235  MEOH      H1A            -7.2088389543      -14.7500747861       35.5457235800  MEOH      3543            0.0000000000
     52740      4235  MEOH      H1B            -5.8715385679      -14.5672941711       36.7570836952  MEOH      3543            0.0000000000
     52741      4235  MEOH      H1C            -7.4779599722      -15.2458852668       37.2633502815  MEOH      3543            0.0000000000
     52742      4235  MEOH      LP1A           -6.5408337953      -16.7418056133       36.1869844625  MEOH      3543            0.0000000000
     52743      4235  MEOH      LP1B           -5.9347867573      -16.5096195099       36.0804682620  MEOH      3543            0.0000000000
     52744      4236  MEOH      C1             19.5897547576      -32.8535013008      -30.6706349408  MEOH      3544            0.0000000000
     52745      4236  MEOH      DC1            19.5875046649      -32.8576253714      -30.6729885847  MEOH      3544            0.0000000000
     52746      4236  MEOH      O1             20.0041184013      -33.4265003248      -29.4279286483  MEOH      3544            0.0000000000
     52747      4236  MEOH      DO1            19.9964876705      -33.4302823732      -29.4278871064  MEOH      3544            0.0000000000
     52748      4236  MEOH      HO1            19.5235376100      -32.9738420048      -28.7172651913  MEOH      3544            0.0000000000
     52749      4236  MEOH      HO2            19.9553694930      -34.3889653836      -29.5383123181  MEOH      3544            0.0000000000
     52750      4236  MEOH      H1A            20.2449705234      -33.2271041705      -31.4863764422  MEOH      3544            0.0000000000
     52751      4236  MEOH      H1B            19.6764280440      -31.7466615465      -30.6292283981  MEOH      3544            0.0000000000
     52752      4236  MEOH      H1C            18.5360399023      -33.1313196474      -30.8870211000  MEOH      3544            0.0000000000
     52753      4236  MEOH      LP1A           19.8008059333      -33.7001169272      -29.3485687387  MEOH      3544            0.0000000000
     52754      4236  MEOH      LP1B           20.2838586800      -33.2559367793      -29.3048292844  MEOH      3544            0.0000000000
     52755      4237  MEOH      C1             20.1363230883       13.7556792201      -31.0263815500  MEOH      3545            0.0000000000
     52756      4237  MEOH      DC1            20.1448472826       13.7714039668      -31.0022392036  MEOH      3545            0.0000000000
     52757      4237  MEOH      O1             20.9691642835       12.8270583726      -30.3456859411  MEOH      3545            0.0000000000
     52758      4237  MEOH      DO1            20.9792667246       12.8410166223      -30.3229444402  MEOH      3545            0.0000000000
     52759      4237  MEOH      HO1            21.8946909033       13.0389735209      -30.5441612443  MEOH      3545            0.0000000000
     52760      4237  MEOH      HO2            20.5934108625       12.6618175560      -29.4668202857  MEOH      3545            0.0000000000
     52761      4237  MEOH      H1A            19.1220705703       13.3221414977      -31.1592644815  MEOH      3545            0.0000000000
     52762      4237  MEOH      H1B            20.5558969869       13.9536009143      -32.0358892254  MEOH      3545            0.0000000000
     52763      4237  MEOH      H1C            20.0553806007       14.7030472470      -30.4516962993  MEOH      3545            0.0000000000
     52764      4237  MEOH      LP1A           21.0447569228       12.9464016913      -30.0254626984  MEOH      3545            0.0000000000
     52765      4237  MEOH      LP1B           21.0245938272       12.5460951670      -30.5469003609  MEOH      3545            0.0000000000
     52766      4238  MEOH      C1             31.2834236931      -36.4004426047      -27.9399090475  MEOH      3546            0.0000000000
     52767      4238  MEOH      DC1            31.2810715492      -36.4098783369      -27.9409717632  MEOH      3546            0.0000000000
     52768      4238  MEOH      O1             31.4711811306      -35.1026957713      -28.4515229400  MEOH      3546            0.0000000000
     52769      4238  MEOH      DO1            31.4672665529      -35.1070529984      -28.4475493925  MEOH      3546            0.0000000000
     52770      4238  MEOH      HO1            31.8325273755      -34.5910194092      -27.7109041496  MEOH      3546            0.0000000000
     52771      4238  MEOH      HO2            32.0131342358      -35.2284729865      -29.2461089478  MEOH      3546            0.0000000000
     52772      4238  MEOH      H1A            30.9134701452      -37.0748613543      -28.7415415834  MEOH      3546            0.0000000000
     52773      4238  MEOH      H1B            30.6110481031      -36.4230826261      -27.0557600233  MEOH      3546            0.0000000000
     52774      4238  MEOH      H1C            32.2991383651      -36.7254293891      -27.6284153949  MEOH      3546            0.0000000000
     52775      4238  MEOH      LP1A           31.7900528956      -35.0748090124      -28.5930966881  MEOH      3546            0.0000000000
     52776      4238  MEOH      LP1B           31.1802287448      -34.9132786206      -28.4071624592  MEOH      3546            0.0000000000
     52777      4239  MEOH      C1             10.4694950109       20.6181655480      -29.7816592056  MEOH      3547            0.0000000000
     52778      4239  MEOH      DC1            10.4713663581       20.6344920289      -29.7691936653  MEOH      3547            0.0000000000
     52779      4239  MEOH      O1             11.4410311154       21.6284563314      -29.4900900067  MEOH      3547            0.0000000000
     52780      4239  MEOH      DO1            11.4367722502       21.6397307762      -29.4765035209  MEOH      3547            0.0000000000
     52781      4239  MEOH      HO1            11.9492386066       21.7684028782      -30.3043627564  MEOH      3547            0.0000000000
     52782      4239  MEOH      HO2            10.9578370798       22.3634266755      -29.0811375436  MEOH      3547            0.0000000000
     52783      4239  MEOH      H1A             9.9198862779       20.3143509078      -28.8651724861  MEOH      3547            0.0000000000
     52784      4239  MEOH      H1B            10.9700845036       19.7077314418      -30.1751574887  MEOH      3547            0.0000000000
     52785      4239  MEOH      H1C             9.7371224764       20.9939942838      -30.5277853559  MEOH      3547            0.0000000000
     52786      4239  MEOH      LP1A           11.3068858017       21.9454235660      -29.5536258782  MEOH      3547            0.0000000000
     52787      4239  MEOH      LP1B           11.7336985909       21.4811340428      -29.3670376111  MEOH      3547            0.0000000000
     52788      4240  MEOH      C1             -1.2403819582       29.3127045790       21.4693894041  MEOH      3548            0.0000000000
     52789      4240  MEOH      DC1            -1.2399601318       29.3150133668       21.4840781999  MEOH      3548            0.0000000000
     52790      4240  MEOH      O1             -1.7854512286       29.8653990539       22.6713804425  MEOH      3548            0.0000000000
     52791      4240  MEOH      DO1            -1.7772814425       29.8662764537       22.6868096219  MEOH      3548            0.0000000000
     52792      4240  MEOH      HO1            -1.8956335255       30.8172499468       22.5205834300  MEOH      3548            0.0000000000
     52793      4240  MEOH      HO2            -2.5521264283       29.3122445601       22.8884731524  MEOH      3548            0.0000000000
     52794      4240  MEOH      H1A            -1.0953269621       28.2169370692       21.5815215342  MEOH      3548            0.0000000000
     52795      4240  MEOH      H1B            -0.2564515772       29.7803231568       21.2513644704  MEOH      3548            0.0000000000
     52796      4240  MEOH      H1C            -1.9284129881       29.4973736110       20.6168451820  MEOH      3548            0.0000000000
     52797      4240  MEOH      LP1A           -2.1350840215       29.8532601847       22.6609134472  MEOH      3548            0.0000000000
     52798      4240  MEOH      LP1B           -1.5269909863       29.9595909042       22.8877740619  MEOH      3548            0.0000000000
     52799      4241  MEOH      C1             17.5452896663      -19.0273466215       -5.1046196456  MEOH      3549            0.0000000000
     52800      4241  MEOH      DC1            17.5449701792      -19.0466611601       -5.1114493488  MEOH      3549            0.0000000000
     52801      4241  MEOH      O1             17.3681414287      -17.6344318387       -4.8463446837  MEOH      3549            0.0000000000
     52802      4241  MEOH      DO1            17.3728524475      -17.6448102030       -4.8583242639  MEOH      3549            0.0000000000
     52803      4241  MEOH      HO1            16.9632748605      -17.5414610446       -3.9697949171  MEOH      3549            0.0000000000
     52804      4241  MEOH      HO2            18.2245901446      -17.2202593512       -5.0357034657  MEOH      3549            0.0000000000
     52805      4241  MEOH      H1A            17.9457233777      -19.1649844249       -6.1317660219  MEOH      3549            0.0000000000
     52806      4241  MEOH      H1B            16.5678500636      -19.5479377544       -5.0156382123  MEOH      3549            0.0000000000
     52807      4241  MEOH      H1C            18.2669227095      -19.4544914745       -4.3758439416  MEOH      3549            0.0000000000
     52808      4241  MEOH      LP1A           17.6543995175      -17.5037403784       -4.6931257267  MEOH      3549            0.0000000000
     52809      4241  MEOH      LP1B           17.0567520937      -17.5290615514       -4.9664853704  MEOH      3549            0.0000000000
     52810      4242  MEOH      C1            -35.4555340014      -14.6120915695        2.1188063592  MEOH      3550            0.0000000000
     52811      4242  MEOH      DC1           -35.4556344398      -14.6161312383        2.1081103083  MEOH      3550            0.0000000000
     52812      4242  MEOH      O1            -35.4888437035      -13.1827487796        2.0980097657  MEOH      3550            0.0000000000
     52813      4242  MEOH      DO1           -35.4929164351      -13.1865971880        2.0874559851  MEOH      3550            0.0000000000
     52814      4242  MEOH      HO1           -35.6574649693      -12.8874176943        3.0064405109  MEOH      3550            0.0000000000
     52815      4242  MEOH      HO2           -34.6718035644      -12.9063998484        1.6541892155  MEOH      3550            0.0000000000
     52816      4242  MEOH      H1A           -35.2850374071      -14.9936301334        1.0893986481  MEOH      3550            0.0000000000
     52817      4242  MEOH      H1B           -36.4187079917      -15.0112163526        2.5026243812  MEOH      3550            0.0000000000
     52818      4242  MEOH      H1C           -34.6311766647      -14.9640115949        2.7752424016  MEOH      3550            0.0000000000
     52819      4242  MEOH      LP1A          -35.1669366648      -13.0547677626        2.1479769322  MEOH      3550            0.0000000000
     52820      4242  MEOH      LP1B          -35.8143220652      -13.0715237028        2.0332577901  MEOH      3550            0.0000000000
     52821      4243  MEOH      C1             12.5004454950      -19.3943890527        0.2519883803  MEOH      3551            0.0000000000
     52822      4243  MEOH      DC1            12.5060549634      -19.3782128465        0.2341005328  MEOH      3551            0.0000000000
     52823      4243  MEOH      O1             12.8836604893      -18.4323096635       -0.7166787867  MEOH      3551            0.0000000000
     52824      4243  MEOH      DO1            12.8848277499      -18.4247727035       -0.7255964324  MEOH      3551            0.0000000000
     52825      4243  MEOH      HO1            12.0872312605      -17.9401936601       -0.9704943168  MEOH      3551            0.0000000000
     52826      4243  MEOH      HO2            13.6512894434      -17.9698115748       -0.3455436270  MEOH      3551            0.0000000000
     52827      4243  MEOH      H1A            13.3688237837      -20.0380949287        0.5086650141  MEOH      3551            0.0000000000
     52828      4243  MEOH      H1B            11.6873939978      -20.0292687584       -0.1605598262  MEOH      3551            0.0000000000
     52829      4243  MEOH      H1C            12.1434485233      -18.8917591751        1.1762380048  MEOH      3551            0.0000000000
     52830      4243  MEOH      LP1A           12.9797339940      -18.1351162425       -0.5587359102  MEOH      3551            0.0000000000
     52831      4243  MEOH      LP1B           12.8631518700      -18.5707165107       -1.0374948418  MEOH      3551            0.0000000000
     52832      4244  MEOH      C1             29.7501194354       22.4964136556       23.3538620621  MEOH      3552            0.0000000000
     52833      4244  MEOH      DC1            29.7390334671       22.4935793364       23.3257798111  MEOH      3552            0.0000000000
     52834      4244  MEOH      O1             29.4473946700       22.4391538269       21.9571276005  MEOH      3552            0.0000000000
     52835      4244  MEOH      DO1            29.4348926338       22.4344512521       21.9377212569  MEOH      3552            0.0000000000
     52836      4244  MEOH      HO1            30.2476294203       22.7500535858       21.5056127232  MEOH      3552            0.0000000000
     52837      4244  MEOH      HO2            29.0985612172       21.5490910466       21.7928002731  MEOH      3552            0.0000000000
     52838      4244  MEOH      H1A            28.8512621165       22.2349766701       23.9522158232  MEOH      3552            0.0000000000
     52839      4244  MEOH      H1B            30.0803598287       23.5171236163       23.6426759446  MEOH      3552            0.0000000000
     52840      4244  MEOH      H1C            30.5600542456       21.7764278742       23.5987029875  MEOH      3552            0.0000000000
     52841      4244  MEOH      LP1A           29.5299724695       22.1238600286       21.8295708373  MEOH      3552            0.0000000000
     52842      4244  MEOH      LP1B           29.3036436149       22.7409175110       21.8533282118  MEOH      3552            0.0000000000
     52843      4245  MEOH      C1             23.5406621680       36.7578876661      -10.0481105504  MEOH      3553            0.0000000000
     52844      4245  MEOH      DC1            23.5391447396       36.7590677734      -10.0549685381  MEOH      3553            0.0000000000
     52845      4245  MEOH      O1             22.6422031498       36.6911206123       -8.9615536845  MEOH      3553            0.0000000000
     52846      4245  MEOH      DO1            22.6365742677       36.6927884194       -8.9689672213  MEOH      3553            0.0000000000
     52847      4245  MEOH      HO1            21.9077046248       36.1178798635       -9.2313813353  MEOH      3553            0.0000000000
     52848      4245  MEOH      HO2            23.2129371928       36.4464199049       -8.2163797344  MEOH      3553            0.0000000000
     52849      4245  MEOH      H1A            24.3987489675       37.3506832683       -9.6652249035  MEOH      3553            0.0000000000
     52850      4245  MEOH      H1B            23.0678601156       37.2279394587      -10.9368346547  MEOH      3553            0.0000000000
     52851      4245  MEOH      H1C            23.9313343099       35.7624077143      -10.3493014263  MEOH      3553            0.0000000000
     52852      4245  MEOH      LP1A           22.7305616883       36.4273071637       -8.7491973024  MEOH      3553            0.0000000000
     52853      4245  MEOH      LP1B           22.4082865067       36.9505431108       -8.9835302937  MEOH      3553            0.0000000000
     52854      4246  MEOH      C1             13.5108976953       15.5096451196       33.3344948851  MEOH      3554            0.0000000000
     52855      4246  MEOH      DC1            13.5009032608       15.5160100762       33.3309528850  MEOH      3554            0.0000000000
     52856      4246  MEOH      O1             12.5482514792       16.5456089034       33.5335594530  MEOH      3554            0.0000000000
     52857      4246  MEOH      DO1            12.5373696903       16.5460410520       33.5372346285  MEOH      3554            0.0000000000
     52858      4246  MEOH      HO1            12.9653891046       17.3669683021       33.2298080079  MEOH      3554            0.0000000000
     52859      4246  MEOH      HO2            11.7262043069       16.2354060450       33.1225696318  MEOH      3554            0.0000000000
     52860      4246  MEOH      H1A            13.1390876059       14.5682992365       33.7926937372  MEOH      3554            0.0000000000
     52861      4246  MEOH      H1B            14.4717200591       15.7685498648       33.8285694939  MEOH      3554            0.0000000000
     52862      4246  MEOH      H1C            13.6826410363       15.3433532175       32.2495192042  MEOH      3554            0.0000000000
     52863      4246  MEOH      LP1A           12.3455904560       16.5768158350       33.2499141867  MEOH      3554            0.0000000000
     52864      4246  MEOH      LP1B           12.5821251702       16.6803811553       33.8547899204  MEOH      3554            0.0000000000
     52865      4247  MEOH      C1             13.7313841678       24.3388817630       20.4864977619  MEOH      3555            0.0000000000
     52866      4247  MEOH      DC1            13.7318225073       24.3271259936       20.4888874618  MEOH      3555            0.0000000000
     52867      4247  MEOH      O1             13.6906260469       25.7510747993       20.3145375925  MEOH      3555            0.0000000000
     52868      4247  MEOH      DO1            13.6937134527       25.7433589253       20.3205846461  MEOH      3555            0.0000000000
     52869      4247  MEOH      HO1            12.8714277633       25.9680618710       19.8425939699  MEOH      3555            0.0000000000
     52870      4247  MEOH      HO2            13.8700921384       26.1242559941       21.1917078831  MEOH      3555            0.0000000000
     52871      4247  MEOH      H1A            14.7142808893       24.0580536174       20.9216650717  MEOH      3555            0.0000000000
     52872      4247  MEOH      H1B            13.6083607945       23.8287878535       19.5072171819  MEOH      3555            0.0000000000
     52873      4247  MEOH      H1C            12.9260985054       24.0133565077       21.1792237617  MEOH      3555            0.0000000000
     52874      4247  MEOH      LP1A           13.5348718066       25.9007533686       20.5899226729  MEOH      3555            0.0000000000
     52875      4247  MEOH      LP1B           13.8495986807       25.8399082321       20.0156457676  MEOH      3555            0.0000000000
     52876      4248  MEOH      C1             24.1482216536      -34.4986888620      -28.7985113252  MEOH      3556            0.0000000000
     52877      4248  MEOH      DC1            24.1410698706      -34.5060838494      -28.7979491059  MEOH      3556            0.0000000000
     52878      4248  MEOH      O1             24.8104489031      -33.4660883773      -28.0635925886  MEOH      3556            0.0000000000
     52879      4248  MEOH      DO1            24.8042637881      -33.4817760008      -28.0599445668  MEOH      3556            0.0000000000
     52880      4248  MEOH      HO1            25.7591036691      -33.6662590627      -28.0338296376  MEOH      3556            0.0000000000
     52881      4248  MEOH      HO2            24.5260815197      -32.6348021028      -28.4746866425  MEOH      3556            0.0000000000
     52882      4248  MEOH      H1A            23.0563635720      -34.2944963768      -28.8202451378  MEOH      3556            0.0000000000
     52883      4248  MEOH      H1B            24.3210741171      -35.4842472764      -28.3156887501  MEOH      3556            0.0000000000
     52884      4248  MEOH      H1C            24.5174352640      -34.5171450810      -29.8462048292  MEOH      3556            0.0000000000
     52885      4248  MEOH      LP1A           24.9053526962      -33.2074970911      -28.2795180775  MEOH      3556            0.0000000000
     52886      4248  MEOH      LP1B           24.8163609403      -33.5465029826      -27.7230070060  MEOH      3556            0.0000000000
     52887      4249  MEOH      C1              1.0539692128      -36.4987539974      -30.3442164636  MEOH      3557            0.0000000000
     52888      4249  MEOH      DC1             1.0564328723      -36.4962338172      -30.3576730503  MEOH      3557            0.0000000000
     52889      4249  MEOH      O1              2.4096967792      -36.5559322029      -30.7754764975  MEOH      3557            0.0000000000
     52890      4249  MEOH      DO1             2.4120742068      -36.5559614764      -30.7837536900  MEOH      3557            0.0000000000
     52891      4249  MEOH      HO1             2.9456837709      -36.3733826220      -29.9878892990  MEOH      3557            0.0000000000
     52892      4249  MEOH      HO2             2.4949419453      -37.4100464592      -31.2272752363  MEOH      3557            0.0000000000
     52893      4249  MEOH      H1A             0.3762785332      -36.6741039681      -31.2069497547  MEOH      3557            0.0000000000
     52894      4249  MEOH      H1B             0.8277435488      -35.5044552174      -29.9031803116  MEOH      3557            0.0000000000
     52895      4249  MEOH      H1C             0.8681693612      -37.2793348985      -29.5757811235  MEOH      3557            0.0000000000
     52896      4249  MEOH      LP1A            2.5302699645      -36.8833772261      -30.7482393223  MEOH      3557            0.0000000000
     52897      4249  MEOH      LP1B            2.5135931747      -36.2404778671      -30.8859034011  MEOH      3557            0.0000000000
     52898      4250  MEOH      C1             21.2654979534       15.5179968910      -14.9395650102  MEOH      3558            0.0000000000
     52899      4250  MEOH      DC1            21.2558518928       15.5169536735      -14.9232301968  MEOH      3558            0.0000000000
     52900      4250  MEOH      O1             19.9779206214       15.8692897774      -14.4213340915  MEOH      3558            0.0000000000
     52901      4250  MEOH      DO1            19.9690279970       15.8725330622      -14.4067700284  MEOH      3558            0.0000000000
     52902      4250  MEOH      HO1            20.1046087151       16.6924436239      -13.9240737252  MEOH      3558            0.0000000000
     52903      4250  MEOH      HO2            19.3796925382       15.8541319668      -15.1847431574  MEOH      3558            0.0000000000
     52904      4250  MEOH      H1A            21.1862744463       14.5936897792      -15.5508758973  MEOH      3558            0.0000000000
     52905      4250  MEOH      H1B            21.9780216250       15.3396413118      -14.1060061908  MEOH      3558            0.0000000000
     52906      4250  MEOH      H1C            21.6571455623       16.3308884275      -15.5877474695  MEOH      3558            0.0000000000
     52907      4250  MEOH      LP1A           19.8059384149       16.0679210250      -14.6525650326  MEOH      3558            0.0000000000
     52908      4250  MEOH      LP1B           19.9300642077       15.7200753292      -14.1083727327  MEOH      3558            0.0000000000
     52909      4251  MEOH      C1            -30.0499593603       24.8396727882       -5.5136248830  MEOH      3559            0.0000000000
     52910      4251  MEOH      DC1           -30.0519843425       24.8445090882       -5.5061244715  MEOH      3559            0.0000000000
     52911      4251  MEOH      O1            -30.9927601191       25.7272924091       -4.9105354248  MEOH      3559            0.0000000000
     52912      4251  MEOH      DO1           -30.9984248411       25.7293049154       -4.9002327771  MEOH      3559            0.0000000000
     52913      4251  MEOH      HO1           -31.7195977399       25.1730209666       -4.5858967914  MEOH      3559            0.0000000000
     52914      4251  MEOH      HO2           -30.4814007305       26.2785577203       -4.2977400818  MEOH      3559            0.0000000000
     52915      4251  MEOH      H1A           -29.2367413678       25.4220219693       -5.9972227844  MEOH      3559            0.0000000000
     52916      4251  MEOH      H1B           -30.5401058513       24.2100547109       -6.2867086399  MEOH      3559            0.0000000000
     52917      4251  MEOH      H1C           -29.6010501033       24.1913800644       -4.7309895763  MEOH      3559            0.0000000000
     52918      4251  MEOH      LP1A          -30.9144824034       25.7734282384       -4.5725352998  MEOH      3559            0.0000000000
     52919      4251  MEOH      LP1B          -31.2223095952       25.8388474484       -5.1500401455  MEOH      3559            0.0000000000
     52920      4252  MEOH      C1             36.5167239144      -36.0767789101      -23.9048914451  MEOH      3560            0.0000000000
     52921      4252  MEOH      DC1            36.5036674144      -36.0869648156      -23.9059861979  MEOH      3560            0.0000000000
     52922      4252  MEOH      O1             36.6232018031      -34.7838930649      -24.4964518217  MEOH      3560            0.0000000000
     52923      4252  MEOH      DO1            36.6039672172      -34.7912434946      -24.4962266840  MEOH      3560            0.0000000000
     52924      4252  MEOH      HO1            37.0317112653      -34.1966876975      -23.8413107104  MEOH      3560            0.0000000000
     52925      4252  MEOH      HO2            37.0839639979      -34.9238064759      -25.3384865229  MEOH      3560            0.0000000000
     52926      4252  MEOH      H1A            36.0858044947      -36.7813982237      -24.6479534053  MEOH      3560            0.0000000000
     52927      4252  MEOH      H1B            35.8479639328      -36.0250867486      -23.0192227663  MEOH      3560            0.0000000000
     52928      4252  MEOH      H1C            37.5190638457      -36.4462485706      -23.5997229137  MEOH      3560            0.0000000000
     52929      4252  MEOH      LP1A           36.9274665934      -34.7549745213      -24.6669999241  MEOH      3560            0.0000000000
     52930      4252  MEOH      LP1B           36.3320179852      -34.5997218480      -24.4348649154  MEOH      3560            0.0000000000
     52931      4253  MEOH      C1             14.0585101250      -16.9652622419      -35.7603414251  MEOH      3561            0.0000000000
     52932      4253  MEOH      DC1            14.0738550735      -16.9714577562      -35.7498913238  MEOH      3561            0.0000000000
     52933      4253  MEOH      O1             12.9326856096      -17.3108267174      -36.5631260443  MEOH      3561            0.0000000000
     52934      4253  MEOH      DO1            12.9394947950      -17.3137314121      -36.5536205510  MEOH      3561            0.0000000000
     52935      4253  MEOH      HO1            13.1882234092      -17.2821588851      -37.4984220340  MEOH      3561            0.0000000000
     52936      4253  MEOH      HO2            12.5419671565      -18.1070726179      -36.1704027865  MEOH      3561            0.0000000000
     52937      4253  MEOH      H1A            13.7197876413      -16.7758136039      -34.7193335990  MEOH      3561            0.0000000000
     52938      4253  MEOH      H1B            14.5270095509      -16.0357522476      -36.1487232720  MEOH      3561            0.0000000000
     52939      4253  MEOH      H1C            14.7937929551      -17.7981123528      -35.7667330313  MEOH      3561            0.0000000000
     52940      4253  MEOH      LP1A           12.9221234590      -17.6572775809      -36.6117083475  MEOH      3561            0.0000000000
     52941      4253  MEOH      LP1B           12.7477842176      -17.0237486522      -36.6399222662  MEOH      3561            0.0000000000
     52942      4254  MEOH      C1            -29.0990209707       15.6078031629       -5.7039283599  MEOH      3562            0.0000000000
     52943      4254  MEOH      DC1           -29.1043724867       15.6126288582       -5.6961129629  MEOH      3562            0.0000000000
     52944      4254  MEOH      O1            -30.0656582069       15.2975622305       -4.6982550115  MEOH      3562            0.0000000000
     52945      4254  MEOH      DO1           -30.0713698309       15.2938003062       -4.6997745395  MEOH      3562            0.0000000000
     52946      4254  MEOH      HO1           -30.9558002384       15.3295872233       -5.0823403713  MEOH      3562            0.0000000000
     52947      4254  MEOH      HO2           -29.7300343967       14.5348991918       -4.2016648905  MEOH      3562            0.0000000000
     52948      4254  MEOH      H1A           -28.1002179106       15.7123192371       -5.2287548778  MEOH      3562            0.0000000000
     52949      4254  MEOH      H1B           -29.3633331747       16.5641837577       -6.2037245350  MEOH      3562            0.0000000000
     52950      4254  MEOH      H1C           -29.0453028075       14.7928296292       -6.4570906932  MEOH      3562            0.0000000000
     52951      4254  MEOH      LP1A          -30.1205306778       14.9520581594       -4.6874870587  MEOH      3562            0.0000000000
     52952      4254  MEOH      LP1B          -30.1643165072       15.5898001794       -4.5328357835  MEOH      3562            0.0000000000
     52953      4255  MEOH      C1             35.3185808240       15.0108444057      -29.9790858406  MEOH      3563            0.0000000000
     52954      4255  MEOH      DC1            35.3195017731       15.0269131703      -29.9940095047  MEOH      3563            0.0000000000
     52955      4255  MEOH      O1             35.1878100003       13.6089044825      -30.1910147080  MEOH      3563            0.0000000000
     52956      4255  MEOH      DO1            35.1928408601       13.6173792634      -30.2062048520  MEOH      3563            0.0000000000
     52957      4255  MEOH      HO1            36.0080932298       13.1935640190      -29.8819391114  MEOH      3563            0.0000000000
     52958      4255  MEOH      HO2            34.3599136234       13.3644925860      -29.7485778041  MEOH      3563            0.0000000000
     52959      4255  MEOH      H1A            34.3483628760       15.5146470171      -30.1770279097  MEOH      3563            0.0000000000
     52960      4255  MEOH      H1B            36.0957294141       15.4212522762      -30.6587375519  MEOH      3563            0.0000000000
     52961      4255  MEOH      H1C            35.6169166270       15.1972480727      -28.9252497892  MEOH      3563            0.0000000000
     52962      4255  MEOH      LP1A           35.0416027897       13.4585988895      -29.9107796633  MEOH      3563            0.0000000000
     52963      4255  MEOH      LP1B           35.3015367848       13.5251238652      -30.5112443547  MEOH      3563            0.0000000000
     52964      4256  MEOH      C1            -30.5484194732      -24.9130967022       -4.5266580875  MEOH      3564            0.0000000000
     52965      4256  MEOH      DC1           -30.5484675822      -24.9141375508       -4.5209382011  MEOH      3564            0.0000000000
     52966      4256  MEOH      O1            -30.7750624368      -24.8548532271       -5.9362293909  MEOH      3564            0.0000000000
     52967      4256  MEOH      DO1           -30.7741836598      -24.8477064076       -5.9282492339  MEOH      3564            0.0000000000
     52968      4256  MEOH      HO1           -30.0537425133      -25.3275714250       -6.3802283489  MEOH      3564            0.0000000000
     52969      4256  MEOH      HO2           -31.6873534676      -25.1575708739       -6.0665639664  MEOH      3564            0.0000000000
     52970      4256  MEOH      H1A           -31.3283998428      -24.3269909350       -3.9952150955  MEOH      3564            0.0000000000
     52971      4256  MEOH      H1B           -29.5486483615      -24.4913221925       -4.2881523494  MEOH      3564            0.0000000000
     52972      4256  MEOH      H1C           -30.5940830190      -25.9679089926       -4.1808158211  MEOH      3564            0.0000000000
     52973      4256  MEOH      LP1A          -30.9718082187      -25.1261574871       -6.0371506265  MEOH      3564            0.0000000000
     52974      4256  MEOH      LP1B          -30.6258843552      -24.5677432344       -6.0696975596  MEOH      3564            0.0000000000
     52975      4257  MEOH      C1            -19.9924157500       21.4153779384      -21.3295515832  MEOH      3565            0.0000000000
     52976      4257  MEOH      DC1           -19.9819821567       21.4091038415      -21.3308839018  MEOH      3565            0.0000000000
     52977      4257  MEOH      O1            -20.8259029703       22.3674339273      -21.9977673652  MEOH      3565            0.0000000000
     52978      4257  MEOH      DO1           -20.8225708346       22.3596371243      -21.9956414721  MEOH      3565            0.0000000000
     52979      4257  MEOH      HO1           -20.3306204398       23.1929401795      -22.1166565679  MEOH      3565            0.0000000000
     52980      4257  MEOH      HO2           -21.1987544152       21.9063962114      -22.7654430951  MEOH      3565            0.0000000000
     52981      4257  MEOH      H1A           -20.5947025314       20.5159238285      -21.0794437307  MEOH      3565            0.0000000000
     52982      4257  MEOH      H1B           -19.5961008600       21.8423161936      -20.3835181619  MEOH      3565            0.0000000000
     52983      4257  MEOH      H1C           -19.1546665776       21.1103244608      -21.9924540660  MEOH      3565            0.0000000000
     52984      4257  MEOH      LP1A          -20.7900083800       22.3354545884      -22.3444500735  MEOH      3565            0.0000000000
     52985      4257  MEOH      LP1B          -21.0097558823       22.5510024396      -21.7632450676  MEOH      3565            0.0000000000
     52986      4258  MEOH      C1             -7.5447742913       11.1387457918       24.1923369718  MEOH      3566            0.0000000000
     52987      4258  MEOH      DC1            -7.5543570819       11.1720981348       24.1971308820  MEOH      3566            0.0000000000
     52988      4258  MEOH      O1             -8.2324307975       12.3896851386       24.0419085223  MEOH      3566            0.0000000000
     52989      4258  MEOH      DO1            -8.2354591349       12.4175903194       24.0569683956  MEOH      3566            0.0000000000
     52990      4258  MEOH      HO1            -7.6371110564       12.9493694698       23.5191773722  MEOH      3566            0.0000000000
     52991      4258  MEOH      HO2            -9.0943401395       12.1592949761       23.6612082982  MEOH      3566            0.0000000000
     52992      4258  MEOH      H1A            -8.1910552187       10.3915987492       24.7006806149  MEOH      3566            0.0000000000
     52993      4258  MEOH      H1B            -6.6087034256       11.2668857523       24.7768645471  MEOH      3566            0.0000000000
     52994      4258  MEOH      H1C            -7.2777435358       10.7106748586       23.2025032220  MEOH      3566            0.0000000000
     52995      4258  MEOH      LP1A           -8.4337459687       12.3819610623       23.7557048527  MEOH      3566            0.0000000000
     52996      4258  MEOH      LP1B           -8.1546330828       12.6019407388       24.3091070922  MEOH      3566            0.0000000000
     52997      4259  MEOH      C1             35.2968229188       30.7440408437       24.1338482111  MEOH      3567            0.0000000000
     52998      4259  MEOH      DC1            35.3035948860       30.7449252203       24.1227671109  MEOH      3567            0.0000000000
     52999      4259  MEOH      O1             36.0610091091       31.8815397199       24.5409623330  MEOH      3567            0.0000000000
     53000      4259  MEOH      DO1            36.0639204787       31.8890985146       24.5290395152  MEOH      3567            0.0000000000
     53001      4259  MEOH      HO1            36.6408665288       32.1209984977       23.8011482574  MEOH      3567            0.0000000000
     53002      4259  MEOH      HO2            35.4257428875       32.5174610178       24.9055729900  MEOH      3567            0.0000000000
     53003      4259  MEOH      H1A            34.7159967047       30.3530231205       24.9964414235  MEOH      3567            0.0000000000
     53004      4259  MEOH      H1B            35.9719017585       29.9388617790       23.7729102193  MEOH      3567            0.0000000000
     53005      4259  MEOH      H1C            34.5854433343       31.0359878763       23.3319585557  MEOH      3567            0.0000000000
     53006      4259  MEOH      LP1A           35.8890204329       32.1758872570       24.4617195245  MEOH      3567            0.0000000000
     53007      4259  MEOH      LP1B           36.3557098187       31.7775846459       24.6985847754  MEOH      3567            0.0000000000
     53008      4260  MEOH      C1             22.7077485518      -31.4438780488      -29.4761106837  MEOH      3568            0.0000000000
     53009      4260  MEOH      DC1            22.6845938905      -31.4514644508      -29.4821175116  MEOH      3568            0.0000000000
     53010      4260  MEOH      O1             23.4058194682      -30.3096897164      -28.9665115392  MEOH      3568            0.0000000000
     53011      4260  MEOH      DO1            23.3832125848      -30.3240051017      -28.9657130384  MEOH      3568            0.0000000000
     53012      4260  MEOH      HO1            23.6497303065      -29.7123590511      -29.6908067698  MEOH      3568            0.0000000000
     53013      4260  MEOH      HO2            22.8856172838      -29.9810107963      -28.2166716531  MEOH      3568            0.0000000000
     53014      4260  MEOH      H1A            22.4868028142      -32.1290932239      -28.6299522203  MEOH      3568            0.0000000000
     53015      4260  MEOH      H1B            23.3175800911      -31.9790407718      -30.2350753427  MEOH      3568            0.0000000000
     53016      4260  MEOH      H1C            21.7430601037      -31.1253012416      -29.9257839176  MEOH      3568            0.0000000000
     53017      4260  MEOH      LP1A           23.1786211928      -30.0569430022      -28.8828452848  MEOH      3568            0.0000000000
     53018      4260  MEOH      LP1B           23.7492172261      -30.3761776733      -28.9539683566  MEOH      3568            0.0000000000
     53019      4261  MEOH      C1            -21.1473819797      -35.8042207608      -11.6777606628  MEOH      3569            0.0000000000
     53020      4261  MEOH      DC1           -21.1566894450      -35.7857544940      -11.6630110001  MEOH      3569            0.0000000000
     53021      4261  MEOH      O1            -21.7017210444      -35.9069117123      -10.3761080542  MEOH      3569            0.0000000000
     53022      4261  MEOH      DO1           -21.6962574067      -35.8952275868      -10.3599671270  MEOH      3569            0.0000000000
     53023      4261  MEOH      HO1           -22.6615913889      -35.8929183464      -10.5152235043  MEOH      3569            0.0000000000
     53024      4261  MEOH      HO2           -21.3626677162      -36.7586689489      -10.0591657085  MEOH      3569            0.0000000000
     53025      4261  MEOH      H1A           -20.0430527517      -35.8925746903      -11.5942649178  MEOH      3569            0.0000000000
     53026      4261  MEOH      H1B           -21.4112864735      -34.8284628273      -12.1388158384  MEOH      3569            0.0000000000
     53027      4261  MEOH      H1C           -21.5227800111      -36.6200976644      -12.3317806906  MEOH      3569            0.0000000000
     53028      4261  MEOH      LP1A          -21.7441889970      -36.2435621809      -10.2903005080  MEOH      3569            0.0000000000
     53029      4261  MEOH      LP1B          -21.7422474644      -35.5879829620      -10.2377532149  MEOH      3569            0.0000000000
     53030      4262  MEOH      C1             27.5911506876        7.6001246238      -12.5715461498  MEOH      3570            0.0000000000
     53031      4262  MEOH      DC1            27.5867220172        7.6075074491      -12.5783544367  MEOH      3570            0.0000000000
     53032      4262  MEOH      O1             26.6350433253        6.6280797649      -13.0039085278  MEOH      3570            0.0000000000
     53033      4262  MEOH      DO1            26.6312702007        6.6386903652      -13.0182018050  MEOH      3570            0.0000000000
     53034      4262  MEOH      HO1            26.5714963034        5.9615787650      -12.3020266338  MEOH      3570            0.0000000000
     53035      4262  MEOH      HO2            25.8507166603        7.1269320603      -13.2811774794  MEOH      3570            0.0000000000
     53036      4262  MEOH      H1A            27.7800029460        8.3336594397      -13.3843084145  MEOH      3570            0.0000000000
     53037      4262  MEOH      H1B            28.5441724203        7.1000636209      -12.2958478175  MEOH      3570            0.0000000000
     53038      4262  MEOH      H1C            27.2033460151        8.1442439922      -11.6839298755  MEOH      3570            0.0000000000
     53039      4262  MEOH      LP1A           26.3137640208        6.7227715549      -12.9023552243  MEOH      3570            0.0000000000
     53040      4262  MEOH      LP1B           26.7947332868        6.3765531200      -13.1875752453  MEOH      3570            0.0000000000
     53041      4263  MEOH      C1             25.3540671385       23.6729175583       36.5670309620  MEOH      3571            0.0000000000
     53042      4263  MEOH      DC1            25.3438782021       23.6674560950       36.5789548172  MEOH      3571            0.0000000000
     53043      4263  MEOH      O1             25.4887459195       22.3847563248       37.1570631803  MEOH      3571            0.0000000000
     53044      4263  MEOH      DO1            25.4788680822       22.3824771556       37.1742162108  MEOH      3571            0.0000000000
     53045      4263  MEOH      HO1            25.2652331330       21.7398987330       36.4677876762  MEOH      3571            0.0000000000
     53046      4263  MEOH      HO2            26.3885664663       22.3667426107       37.5188621447  MEOH      3571            0.0000000000
     53047      4263  MEOH      H1A            25.7330236165       24.4449789416       37.2703333211  MEOH      3571            0.0000000000
     53048      4263  MEOH      H1B            24.2832237714       23.8656336189       36.3423623069  MEOH      3571            0.0000000000
     53049      4263  MEOH      H1C            25.9478147609       23.7203248986       35.6291944595  MEOH      3571            0.0000000000
     53050      4263  MEOH      LP1A           25.8168421705       22.2691414498       37.1185138513  MEOH      3571            0.0000000000
     53051      4263  MEOH      LP1B           25.1863882489       22.2885508369       37.3047938242  MEOH      3571            0.0000000000
     53052      4264  MEOH      C1             -8.9980188253      -29.2726819444       20.3972656986  MEOH      3572            0.0000000000
     53053      4264  MEOH      DC1            -8.9879337959      -29.2848159403       20.3940098646  MEOH      3572            0.0000000000
     53054      4264  MEOH      O1             -8.4893990758      -29.1905359624       19.0688986989  MEOH      3572            0.0000000000
     53055      4264  MEOH      DO1            -8.4866609779      -29.1959327641       19.0666181011  MEOH      3572            0.0000000000
     53056      4264  MEOH      HO1            -7.5449787064      -28.9774255893       19.1285152772  MEOH      3572            0.0000000000
     53057      4264  MEOH      HO2            -8.7988276735      -29.9907290905       18.6163007531  MEOH      3572            0.0000000000
     53058      4264  MEOH      H1A           -10.1043814979      -29.3664691652       20.3587093171  MEOH      3572            0.0000000000
     53059      4264  MEOH      H1B            -8.7348930373      -28.3572084808       20.9690997280  MEOH      3572            0.0000000000
     53060      4264  MEOH      H1C            -8.5915505639      -30.1652757435       20.9191668997  MEOH      3572            0.0000000000
     53061      4264  MEOH      LP1A           -8.3799767452      -29.5056453696       18.9629137234  MEOH      3572            0.0000000000
     53062      4264  MEOH      LP1B           -8.5237807410      -28.8640592168       18.9475280448  MEOH      3572            0.0000000000
     53063      4265  MEOH      C1            -27.1721490021       -9.5167358201       13.0855432124  MEOH      3573            0.0000000000
     53064      4265  MEOH      DC1           -27.1715647507       -9.5131448284       13.0725100360  MEOH      3573            0.0000000000
     53065      4265  MEOH      O1            -26.1804787044      -10.3794105637       13.6523701320  MEOH      3573            0.0000000000
     53066      4265  MEOH      DO1           -26.1675789138      -10.3761561388       13.6397722019  MEOH      3573            0.0000000000
     53067      4265  MEOH      HO1           -26.2073010365      -10.2210642779       14.6089823921  MEOH      3573            0.0000000000
     53068      4265  MEOH      HO2           -26.3982883661      -11.2646151816       13.3209010732  MEOH      3573            0.0000000000
     53069      4265  MEOH      H1A           -27.1364166705       -9.5652382004       11.9761777538  MEOH      3573            0.0000000000
     53070      4265  MEOH      H1B           -26.9915557909       -8.4598733747       13.3766597936  MEOH      3573            0.0000000000
     53071      4265  MEOH      H1C           -28.1763176556       -9.8239117246       13.4483231444  MEOH      3573            0.0000000000
     53072      4265  MEOH      LP1A          -26.3215171393      -10.6908013525       13.7274962696  MEOH      3573            0.0000000000
     53073      4265  MEOH      LP1B          -25.8709881248      -10.2162207841       13.6615721391  MEOH      3573            0.0000000000
     53074      4266  MEOH      C1            -29.6374131255      -27.5451662420      -35.4728538549  MEOH      3574            0.0000000000
     53075      4266  MEOH      DC1           -29.6292282507      -27.5517840940      -35.4695539210  MEOH      3574            0.0000000000
     53076      4266  MEOH      O1            -29.7130254384      -28.9707363305      -35.3923239483  MEOH      3574            0.0000000000
     53077      4266  MEOH      DO1           -29.7021296983      -28.9765450313      -35.3937726704  MEOH      3574            0.0000000000
     53078      4266  MEOH      HO1           -30.3332630088      -29.2655255973      -36.0773820805  MEOH      3574            0.0000000000
     53079      4266  MEOH      HO2           -28.8043525383      -29.3071614066      -35.3472492379  MEOH      3574            0.0000000000
     53080      4266  MEOH      H1A           -29.2223781591      -27.1432894499      -34.5238743918  MEOH      3574            0.0000000000
     53081      4266  MEOH      H1B           -30.6499733963      -27.1222848279      -35.6466756247  MEOH      3574            0.0000000000
     53082      4266  MEOH      H1C           -28.9718103498      -27.2277929308      -36.3038581439  MEOH      3574            0.0000000000
     53083      4266  MEOH      LP1A          -29.4672179232      -29.1153030995      -35.5952503260  MEOH      3574            0.0000000000
     53084      4266  MEOH      LP1B          -29.9639949244      -29.0647748418      -35.1672215816  MEOH      3574            0.0000000000
     53085      4267  MEOH      C1             16.8362732682      -14.2750383848       -1.4109652118  MEOH      3575            0.0000000000
     53086      4267  MEOH      DC1            16.8382722449      -14.2653278831       -1.4149255303  MEOH      3575            0.0000000000
     53087      4267  MEOH      O1             17.2811578220      -13.0078976696       -1.8888858276  MEOH      3575            0.0000000000
     53088      4267  MEOH      DO1            17.2832182967      -13.0017453584       -1.8974354451  MEOH      3575            0.0000000000
     53089      4267  MEOH      HO1            16.9963195110      -12.3470104270       -1.2385050230  MEOH      3575            0.0000000000
     53090      4267  MEOH      HO2            18.2199814719      -13.1206864577       -2.1051931174  MEOH      3575            0.0000000000
     53091      4267  MEOH      H1A            17.0074414667      -15.0539436721       -2.1844825040  MEOH      3575            0.0000000000
     53092      4267  MEOH      H1B            15.7535707855      -14.2188794346       -1.1682256240  MEOH      3575            0.0000000000
     53093      4267  MEOH      H1C            17.3963525604      -14.5568601133       -0.4937909098  MEOH      3575            0.0000000000
     53094      4267  MEOH      LP1A           17.6040367356      -12.9420955599       -1.7709057892  MEOH      3575            0.0000000000
     53095      4267  MEOH      LP1B           17.0376030344      -12.8659661014       -2.0963382206  MEOH      3575            0.0000000000
     53096      4268  MEOH      C1             19.7184918132       20.9847130822      -12.6260460606  MEOH      3576            0.0000000000
     53097      4268  MEOH      DC1            19.7174423170       20.9754128380      -12.6281813998  MEOH      3576            0.0000000000
     53098      4268  MEOH      O1             20.6851790200       21.8307972350      -12.0029406487  MEOH      3576            0.0000000000
     53099      4268  MEOH      DO1            20.6849996804       21.8278262258      -12.0082929569  MEOH      3576            0.0000000000
     53100      4268  MEOH      HO1            20.5171724757       22.7366555174      -12.3064115283  MEOH      3576            0.0000000000
     53101      4268  MEOH      HO2            20.6320242200       21.6326937686      -11.0548744148  MEOH      3576            0.0000000000
     53102      4268  MEOH      H1A            19.8911629801       19.9327864126      -12.3130669070  MEOH      3576            0.0000000000
     53103      4268  MEOH      H1B            19.8117152224       21.0495855074      -13.7312256679  MEOH      3576            0.0000000000
     53104      4268  MEOH      H1C            18.6936345060       21.2939539217      -12.3287943077  MEOH      3576            0.0000000000
     53105      4268  MEOH      LP1A           20.5641157591       21.9441384413      -11.6947240725  MEOH      3576            0.0000000000
     53106      4268  MEOH      LP1B           20.9728619777       21.8502273557      -12.2013366825  MEOH      3576            0.0000000000
     53107      4269  MEOH      C1            -26.0064751697      -30.7436072312       -7.0097579928  MEOH      3577            0.0000000000
     53108      4269  MEOH      DC1           -26.0208086340      -30.7403183511       -7.0067028327  MEOH      3577            0.0000000000
     53109      4269  MEOH      O1            -25.0130492184      -30.3018721571       -7.9294304769  MEOH      3577            0.0000000000
     53110      4269  MEOH      DO1           -25.0253672950      -30.2924597537       -7.9244817608  MEOH      3577            0.0000000000
     53111      4269  MEOH      HO1           -24.9161832246      -29.3390494884       -7.8624268296  MEOH      3577            0.0000000000
     53112      4269  MEOH      HO2           -24.2520591519      -30.8843645559       -7.7794413970  MEOH      3577            0.0000000000
     53113      4269  MEOH      H1A           -26.0834780220      -31.8487513408       -7.0937107087  MEOH      3577            0.0000000000
     53114      4269  MEOH      H1B           -26.9849358832      -30.2776862841       -7.2544073403  MEOH      3577            0.0000000000
     53115      4269  MEOH      H1C           -25.7136673439      -30.4968468353       -5.9668323549  MEOH      3577            0.0000000000
     53116      4269  MEOH      LP1A          -24.6976988648      -30.3094492622       -7.7777837097  MEOH      3577            0.0000000000
     53117      4269  MEOH      LP1B          -25.1597667175      -30.2308549797       -8.2391570272  MEOH      3577            0.0000000000
     53118      4270  MEOH      C1            -15.8844133100       16.0194755324       33.8758735896  MEOH      3578            0.0000000000
     53119      4270  MEOH      DC1           -15.8749629718       16.0335253430       33.8673022268  MEOH      3578            0.0000000000
     53120      4270  MEOH      O1            -15.3317301299       17.1527887595       33.2000777315  MEOH      3578            0.0000000000
     53121      4270  MEOH      DO1           -15.3256076587       17.1649998401       33.1942744487  MEOH      3578            0.0000000000
     53122      4270  MEOH      HO1           -16.0727942085       17.5714086657       32.7348021083  MEOH      3578            0.0000000000
     53123      4270  MEOH      HO2           -14.8321067422       17.6436026741       33.8711799389  MEOH      3578            0.0000000000
     53124      4270  MEOH      H1A           -15.0787886075       15.4499129276       34.3866458270  MEOH      3578            0.0000000000
     53125      4270  MEOH      H1B           -16.3896339173       15.3487315157       33.1484290198  MEOH      3578            0.0000000000
     53126      4270  MEOH      H1C           -16.6232417574       16.3472690781       34.6381103756  MEOH      3578            0.0000000000
     53127      4270  MEOH      LP1A          -15.3405040821       17.4330662919       33.4095234824  MEOH      3578            0.0000000000
     53128      4270  MEOH      LP1B          -15.2200842021       17.0596101263       32.8817179835  MEOH      3578            0.0000000000
     53129      4271  MEOH      C1             10.5568856291       36.0060404520       -6.3099038231  MEOH      3579            0.0000000000
     53130      4271  MEOH      DC1            10.5629986012       36.0216460143       -6.3259082347  MEOH      3579            0.0000000000
     53131      4271  MEOH      O1             10.2495810223       34.6244480638       -6.2318166934  MEOH      3579            0.0000000000
     53132      4271  MEOH      DO1            10.2542184558       34.6373233210       -6.2407716970  MEOH      3579            0.0000000000
     53133      4271  MEOH      HO1            10.6153936871       34.2962058430       -5.3955522981  MEOH      3579            0.0000000000
     53134      4271  MEOH      HO2             9.2934119112       34.5773988681       -6.3881081051  MEOH      3579            0.0000000000
     53135      4271  MEOH      H1A            10.0819910794       36.4116717260       -7.2287397372  MEOH      3579            0.0000000000
     53136      4271  MEOH      H1B            11.6573855594       36.1524119050       -6.3522866139  MEOH      3579            0.0000000000
     53137      4271  MEOH      H1C            10.1463066561       36.5407589097       -5.4268284701  MEOH      3579            0.0000000000
     53138      4271  MEOH      LP1A            9.9381527398       34.5795632708       -6.0785268364  MEOH      3579            0.0000000000
     53139      4271  MEOH      LP1B           10.5038044360       34.4365897447       -6.3820821515  MEOH      3579            0.0000000000
     53140      4272  MEOH      C1            -34.6397921279       21.0111755650        2.0864956297  MEOH      3580            0.0000000000
     53141      4272  MEOH      DC1           -34.6514143651       21.0397626396        2.0937534146  MEOH      3580            0.0000000000
     53142      4272  MEOH      O1            -35.2738328450       22.2169572998        2.5239089500  MEOH      3580            0.0000000000
     53143      4272  MEOH      DO1           -35.2813599355       22.2363444093        2.5340604680  MEOH      3580            0.0000000000
     53144      4272  MEOH      HO1           -34.8239012227       22.9341450992        2.0505135598  MEOH      3580            0.0000000000
     53145      4272  MEOH      HO2           -36.2258225440       22.0704777992        2.4091946534  MEOH      3580            0.0000000000
     53146      4272  MEOH      H1A           -35.0402680272       20.1451825308        2.6557021996  MEOH      3580            0.0000000000
     53147      4272  MEOH      H1B           -33.5442568597       21.0612228802        2.2643122277  MEOH      3580            0.0000000000
     53148      4272  MEOH      H1C           -34.8208762194       20.8421098323        1.0034691613  MEOH      3580            0.0000000000
     53149      4272  MEOH      LP1A          -35.5479042509       22.2893601896        2.3186221116  MEOH      3580            0.0000000000
     53150      4272  MEOH      LP1B          -35.1127979120       22.3401973584        2.8091801163  MEOH      3580            0.0000000000
     53151      4273  MEOH      C1            -13.2934093356      -14.6816984017      -14.7599626139  MEOH      3581            0.0000000000
     53152      4273  MEOH      DC1           -13.2797550564      -14.6845350742      -14.7588534523  MEOH      3581            0.0000000000
     53153      4273  MEOH      O1            -14.6759013326      -14.5707487126      -14.4155682463  MEOH      3581            0.0000000000
     53154      4273  MEOH      DO1           -14.6647736657      -14.5697462562      -14.4103528480  MEOH      3581            0.0000000000
     53155      4273  MEOH      HO1           -15.1178713085      -14.0693422144      -15.1185291738  MEOH      3581            0.0000000000
     53156      4273  MEOH      HO2           -14.9715853829      -15.4617360526      -14.1714115295  MEOH      3581            0.0000000000
     53157      4273  MEOH      H1A           -12.7254457031      -15.0040972654      -13.8611871769  MEOH      3581            0.0000000000
     53158      4273  MEOH      H1B           -12.8823391586      -13.7005158438      -15.0803110151  MEOH      3581            0.0000000000
     53159      4273  MEOH      H1C           -13.1653636302      -15.4282774533      -15.5727018199  MEOH      3581            0.0000000000
     53160      4273  MEOH      LP1A          -14.8532163747      -14.8445465793      -14.5424307860  MEOH      3581            0.0000000000
     53161      4273  MEOH      LP1B          -14.7282777699      -14.2843100585      -14.2213786321  MEOH      3581            0.0000000000
     53162      4274  MEOH      C1            -13.5494709558       16.7494980859       -8.1290384382  MEOH      3582            0.0000000000
     53163      4274  MEOH      DC1           -13.5586530004       16.7496854903       -8.1217266744  MEOH      3582            0.0000000000
     53164      4274  MEOH      O1            -13.1779919198       16.4187370677       -9.4681605670  MEOH      3582            0.0000000000
     53165      4274  MEOH      DO1           -13.1873764682       16.4124345635       -9.4595062980  MEOH      3582            0.0000000000
     53166      4274  MEOH      HO1           -13.7262745375       15.6784526769       -9.7719124260  MEOH      3582            0.0000000000
     53167      4274  MEOH      HO2           -13.1839930762       17.2552880268       -9.9591254137  MEOH      3582            0.0000000000
     53168      4274  MEOH      H1A           -12.8869357287       17.5607179189       -7.7585111715  MEOH      3582            0.0000000000
     53169      4274  MEOH      H1B           -13.4315759375       15.8642204577       -7.4682016295  MEOH      3582            0.0000000000
     53170      4274  MEOH      H1C           -14.6024387215       17.1030596967       -8.1050786302  MEOH      3582            0.0000000000
     53171      4274  MEOH      LP1A          -13.3663382050       16.6076229494       -9.6947610979  MEOH      3582            0.0000000000
     53172      4274  MEOH      LP1B          -12.9195100218       16.1827670233       -9.4658700395  MEOH      3582            0.0000000000
     53173      4275  MEOH      C1             35.6490854139      -10.6324513908       30.0155718629  MEOH      3583            0.0000000000
     53174      4275  MEOH      DC1            35.6345652025      -10.6484086233       30.0157657732  MEOH      3583            0.0000000000
     53175      4275  MEOH      O1             36.9175913726       -9.9781418996       30.0556496154  MEOH      3583            0.0000000000
     53176      4275  MEOH      DO1            36.9095509782       -9.9886615739       30.0683358683  MEOH      3583            0.0000000000
     53177      4275  MEOH      HO1            37.1831124591       -9.7842185024       29.1430750877  MEOH      3583            0.0000000000
     53178      4275  MEOH      HO2            36.8165024544       -9.2542845419       30.6933890276  MEOH      3583            0.0000000000
     53179      4275  MEOH      H1A            35.3664463348      -10.9567157590       31.0399198362  MEOH      3583            0.0000000000
     53180      4275  MEOH      H1B            35.7001604260      -11.5261042739       29.3574709057  MEOH      3583            0.0000000000
     53181      4275  MEOH      H1C            34.8772881537       -9.9274807163       29.6391859732  MEOH      3583            0.0000000000
     53182      4275  MEOH      LP1A           36.8729679651       -9.6320595048       30.0827739125  MEOH      3583            0.0000000000
     53183      4275  MEOH      LP1B           37.1749096312      -10.2152226406       30.0467033274  MEOH      3583            0.0000000000
     53184      4276  MEOH      C1             -4.8422887151        0.4968492578        3.4252015488  MEOH      3584            0.0000000000
     53185      4276  MEOH      DC1            -4.8292726592        0.5133051137        3.4249259615  MEOH      3584            0.0000000000
     53186      4276  MEOH      O1             -5.0968583987       -0.5698417978        4.3403672870  MEOH      3584            0.0000000000
     53187      4276  MEOH      DO1            -5.0780771447       -0.5603316046        4.3453820033  MEOH      3584            0.0000000000
     53188      4276  MEOH      HO1            -4.2527961824       -0.8273944852        4.7430155077  MEOH      3584            0.0000000000
     53189      4276  MEOH      HO2            -5.8385094316       -0.2815331411        4.8951031376  MEOH      3584            0.0000000000
     53190      4276  MEOH      H1A            -5.7698404761        0.7568395166        2.8716911172  MEOH      3584            0.0000000000
     53191      4276  MEOH      H1B            -4.0826669006        0.1765371852        2.6804224704  MEOH      3584            0.0000000000
     53192      4276  MEOH      H1C            -4.4971854602        1.3961481374        3.9788135687  MEOH      3584            0.0000000000
     53193      4276  MEOH      LP1A           -5.1721449550       -0.4406634850        4.6568240739  MEOH      3584            0.0000000000
     53194      4276  MEOH      LP1B           -5.0754111843       -0.8773972487        4.1746878928  MEOH      3584            0.0000000000
     53195      4277  MEOH      C1             -6.1262358050       31.5543453801      -20.3546902067  MEOH      3585            0.0000000000
     53196      4277  MEOH      DC1            -6.1195978442       31.5566130553      -20.3678466351  MEOH      3585            0.0000000000
     53197      4277  MEOH      O1             -7.4985636228       31.5146302453      -20.7388642931  MEOH      3585            0.0000000000
     53198      4277  MEOH      DO1            -7.4961873838       31.5112391311      -20.7538052094  MEOH      3585            0.0000000000
     53199      4277  MEOH      HO1            -7.9674590184       31.1371381877      -19.9782481908  MEOH      3585            0.0000000000
     53200      4277  MEOH      HO2            -7.7067220703       32.4146292235      -21.0347897904  MEOH      3585            0.0000000000
     53201      4277  MEOH      H1A            -5.5025663828       31.9618858633      -21.1788674978  MEOH      3585            0.0000000000
     53202      4277  MEOH      H1B            -5.7932855965       30.5229756550      -20.1102691586  MEOH      3585            0.0000000000
     53203      4277  MEOH      H1C            -6.0044023121       32.1910580927      -19.4524294222  MEOH      3585            0.0000000000
     53204      4277  MEOH      LP1A           -7.6556468099       31.8153989242      -20.6530559358  MEOH      3585            0.0000000000
     53205      4277  MEOH      LP1B           -7.5692218433       31.2117372552      -20.8993736460  MEOH      3585            0.0000000000
     53206      4278  MEOH      C1             31.6901788169       -5.9716736613       28.1882716881  MEOH      3586            0.0000000000
     53207      4278  MEOH      DC1            31.6934742652       -5.9813776833       28.1891200273  MEOH      3586            0.0000000000
     53208      4278  MEOH      O1             31.8599166420       -4.5842789820       28.4846060994  MEOH      3586            0.0000000000
     53209      4278  MEOH      DO1            31.8631267488       -4.5921986682       28.4896732900  MEOH      3586            0.0000000000
     53210      4278  MEOH      HO1            31.5975967007       -4.0847352395       27.6955913354  MEOH      3586            0.0000000000
     53211      4278  MEOH      HO2            31.3805107901       -4.4355808469       29.3146415779  MEOH      3586            0.0000000000
     53212      4278  MEOH      H1A            31.9926332616       -6.5747136409       29.0709863046  MEOH      3586            0.0000000000
     53213      4278  MEOH      H1B            32.3204207619       -6.2511262363       27.3170528001  MEOH      3586            0.0000000000
     53214      4278  MEOH      H1C            30.6244387715       -6.1829119351       27.9561132351  MEOH      3586            0.0000000000
     53215      4278  MEOH      LP1A           31.5669617484       -4.4554188344       28.6262835241  MEOH      3586            0.0000000000
     53216      4278  MEOH      LP1B           32.1849945176       -4.4833642964       28.4031162166  MEOH      3586            0.0000000000
     53217      4279  MEOH      C1            -29.6504019478      -35.9474235571       -1.1088772427  MEOH      3587            0.0000000000
     53218      4279  MEOH      DC1           -29.6456737814      -35.9405165272       -1.1057737899  MEOH      3587            0.0000000000
     53219      4279  MEOH      O1            -30.5720577133      -34.8999855834       -0.7917914518  MEOH      3587            0.0000000000
     53220      4279  MEOH      DO1           -30.5582317188      -34.8942205658       -0.7873651630  MEOH      3587            0.0000000000
     53221      4279  MEOH      HO1           -30.7146134423      -34.3698117394       -1.5914748637  MEOH      3587            0.0000000000
     53222      4279  MEOH      HO2           -31.3389659346      -35.3460416906       -0.3996362144  MEOH      3587            0.0000000000
     53223      4279  MEOH      H1A           -29.5196948853      -36.6025420764       -0.2211518404  MEOH      3587            0.0000000000
     53224      4279  MEOH      H1B           -28.6625565275      -35.5215724545       -1.3866060024  MEOH      3587            0.0000000000
     53225      4279  MEOH      H1C           -30.0403909087      -36.5630208393       -1.9474889513  MEOH      3587            0.0000000000
     53226      4279  MEOH      LP1A          -30.9003251688      -35.0093626720       -0.8444899354  MEOH      3587            0.0000000000
     53227      4279  MEOH      LP1B          -30.3986659021      -34.6191826076       -0.6752368784  MEOH      3587            0.0000000000
     53228      4280  MEOH      C1             -1.1792866941       17.7508230144       21.6926395802  MEOH      3588            0.0000000000
     53229      4280  MEOH      DC1            -1.1828238853       17.7547543008       21.6926815634  MEOH      3588            0.0000000000
     53230      4280  MEOH      O1             -1.7952134724       17.3115774675       22.9109049064  MEOH      3588            0.0000000000
     53231      4280  MEOH      DO1            -1.8037632883       17.3128077717       22.9069407261  MEOH      3588            0.0000000000
     53232      4280  MEOH      HO1            -1.1287840429       16.8823457306       23.4699504605  MEOH      3588            0.0000000000
     53233      4280  MEOH      HO2            -2.3109016210       18.0639796432       23.2408392940  MEOH      3588            0.0000000000
     53234      4280  MEOH      H1A            -1.9307816715       18.1532549823       20.9801616425  MEOH      3588            0.0000000000
     53235      4280  MEOH      H1B            -0.6728223139       16.8980749441       21.1920044229  MEOH      3588            0.0000000000
     53236      4280  MEOH      H1C            -0.4599099321       18.5708892349       21.9031377236  MEOH      3588            0.0000000000
     53237      4280  MEOH      LP1A           -1.7822061500       17.5665498837       23.1503206047  MEOH      3588            0.0000000000
     53238      4280  MEOH      LP1B           -1.9211297287       16.9874247231       22.8712804868  MEOH      3588            0.0000000000
     53239      4281  MEOH      C1              1.8627826910      -30.5549460025       16.3204037136  MEOH      3589            0.0000000000
     53240      4281  MEOH      DC1             1.8712881133      -30.5462779676       16.3316508244  MEOH      3589            0.0000000000
     53241      4281  MEOH      O1              1.9532473567      -29.1321297644       16.1962814527  MEOH      3589            0.0000000000
     53242      4281  MEOH      DO1             1.9582202324      -29.1210389853       16.2131632129  MEOH      3589            0.0000000000
     53243      4281  MEOH      HO1             2.8938710255      -28.8971495772       16.1660916022  MEOH      3589            0.0000000000
     53244      4281  MEOH      HO2             1.3748689333      -28.8957005549       15.4543383092  MEOH      3589            0.0000000000
     53245      4281  MEOH      H1A             0.7954582794      -30.8629652287       16.3366443661  MEOH      3589            0.0000000000
     53246      4281  MEOH      H1B             2.3435697862      -30.8766834897       17.2689024005  MEOH      3589            0.0000000000
     53247      4281  MEOH      H1C             2.3559691400      -31.0594482268       15.4621696941  MEOH      3589            0.0000000000
     53248      4281  MEOH      LP1A            1.9516567673      -29.0411081915       15.8583279895  MEOH      3589            0.0000000000
     53249      4281  MEOH      LP1B            1.9585159660      -28.9843867617       16.5135262271  MEOH      3589            0.0000000000
     53250      4282  MEOH      C1             35.0317592458       -6.5417778452       13.1980101437  MEOH      3590            0.0000000000
     53251      4282  MEOH      DC1            35.0338531641       -6.5503681425       13.2035037985  MEOH      3590            0.0000000000
     53252      4282  MEOH      O1             35.1999478497       -6.4315594353       14.6119182552  MEOH      3590            0.0000000000
     53253      4282  MEOH      DO1            35.2111339676       -6.4384547906       14.6148738392  MEOH      3590            0.0000000000
     53254      4282  MEOH      HO1            34.5348337522       -5.7986569554       14.9249001848  MEOH      3590            0.0000000000
     53255      4282  MEOH      HO2            35.1936154683       -7.3424346395       14.9453343076  MEOH      3590            0.0000000000
     53256      4282  MEOH      H1A            35.8223903854       -7.2010597331       12.7801934453  MEOH      3590            0.0000000000
     53257      4282  MEOH      H1B            35.1146022277       -5.5457118603       12.7129219086  MEOH      3590            0.0000000000
     53258      4282  MEOH      H1C            34.0348109393       -6.9741348023       12.9667472274  MEOH      3590            0.0000000000
     53259      4282  MEOH      LP1A           35.0050184364       -6.6723420791       14.7747870436  MEOH      3590            0.0000000000
     53260      4282  MEOH      LP1B           35.4317033863       -6.1798565358       14.6856408547  MEOH      3590            0.0000000000
     53261      4283  MEOH      C1             10.7337734671      -23.8990236825       36.1358242638  MEOH      3591            0.0000000000
     53262      4283  MEOH      DC1            10.7368828039      -23.9032463075       36.1441914255  MEOH      3591            0.0000000000
     53263      4283  MEOH      O1             11.9206017163      -24.5655046800       36.5952672386  MEOH      3591            0.0000000000
     53264      4283  MEOH      DO1            11.9351843431      -24.5622669189       36.6150897966  MEOH      3591            0.0000000000
     53265      4283  MEOH      HO1            11.7882737721      -25.5254886488       36.5526046690  MEOH      3591            0.0000000000
     53266      4283  MEOH      HO2            12.3309075332      -24.0558729575       37.3113849976  MEOH      3591            0.0000000000
     53267      4283  MEOH      H1A            10.5835971067      -22.9385322364       36.6736199898  MEOH      3591            0.0000000000
     53268      4283  MEOH      H1B             9.8399862168      -24.5327438650       36.3198462276  MEOH      3591            0.0000000000
     53269      4283  MEOH      H1C            10.8227761922      -23.6728929801       35.0517281329  MEOH      3591            0.0000000000
     53270      4283  MEOH      LP1A           12.1394662052      -24.6184983442       36.3273306659  MEOH      3591            0.0000000000
     53271      4283  MEOH      LP1B           11.9045274413      -24.6134121669       36.9416001571  MEOH      3591            0.0000000000
     53272      4284  MEOH      C1            -18.6080501918       23.5692438234       19.3603766800  MEOH      3592            0.0000000000
     53273      4284  MEOH      DC1           -18.6071601397       23.5725038098       19.3531011130  MEOH      3592            0.0000000000
     53274      4284  MEOH      O1            -18.9600260716       24.5560844921       18.3933657949  MEOH      3592            0.0000000000
     53275      4284  MEOH      DO1           -18.9483866042       24.5620435960       18.3897897468  MEOH      3592            0.0000000000
     53276      4284  MEOH      HO1           -19.0224620541       25.4050045675       18.8584856221  MEOH      3592            0.0000000000
     53277      4284  MEOH      HO2           -18.3626696897       24.4266511432       17.6401643863  MEOH      3592            0.0000000000
     53278      4284  MEOH      H1A           -18.7355931671       22.5586775193       18.9167444711  MEOH      3592            0.0000000000
     53279      4284  MEOH      H1B           -19.2561252866       23.6505340279       20.2591044339  MEOH      3592            0.0000000000
     53280      4284  MEOH      H1C           -17.5453282231       23.6998290561       19.6568400239  MEOH      3592            0.0000000000
     53281      4284  MEOH      LP1A          -18.6709803718       24.6907009975       18.2490363803  MEOH      3592            0.0000000000
     53282      4284  MEOH      LP1B          -19.3082806861       24.5791225223       18.3671365625  MEOH      3592            0.0000000000
     53283      4285  MEOH      C1              0.2911951726        7.5215066383      -34.6156475842  MEOH      3593            0.0000000000
     53284      4285  MEOH      DC1             0.2892972616        7.5183563242      -34.5977656598  MEOH      3593            0.0000000000
     53285      4285  MEOH      O1             -0.1396915597        7.3584572083      -35.9680052301  MEOH      3593            0.0000000000
     53286      4285  MEOH      DO1            -0.1455578449        7.3629610522      -35.9437410614  MEOH      3593            0.0000000000
     53287      4285  MEOH      HO1             0.1000606068        8.1513659855      -36.4726977804  MEOH      3593            0.0000000000
     53288      4285  MEOH      HO2             0.2179427109        6.5019534010      -36.2497834346  MEOH      3593            0.0000000000
     53289      4285  MEOH      H1A             0.0579854823        6.5903953374      -34.0562139542  MEOH      3593            0.0000000000
     53290      4285  MEOH      H1B            -0.2495882266        8.3697946582      -34.1441799284  MEOH      3593            0.0000000000
     53291      4285  MEOH      H1C             1.3865442301        7.7025566929      -34.5737868382  MEOH      3593            0.0000000000
     53292      4285  MEOH      LP1A            0.1117760294        7.2037079027      -36.1559326205  MEOH      3593            0.0000000000
     53293      4285  MEOH      LP1B           -0.4675545179        7.4755118377      -36.0041174772  MEOH      3593            0.0000000000
     53294      4286  MEOH      C1             19.6753502842       24.9993974191       24.4906308666  MEOH      3594            0.0000000000
     53295      4286  MEOH      DC1            19.6758737407       24.9820344002       24.4825630382  MEOH      3594            0.0000000000
     53296      4286  MEOH      O1             19.2959549429       24.3588212619       25.7139785136  MEOH      3594            0.0000000000
     53297      4286  MEOH      DO1            19.3019103878       24.3484189678       25.7113632472  MEOH      3594            0.0000000000
     53298      4286  MEOH      HO1            19.9821216323       23.7097012691       25.9347012111  MEOH      3594            0.0000000000
     53299      4286  MEOH      HO2            19.1262542781       25.0784233153       26.3418913816  MEOH      3594            0.0000000000
     53300      4286  MEOH      H1A            18.9594657048       25.8203518515       24.2718522336  MEOH      3594            0.0000000000
     53301      4286  MEOH      H1B            19.6784545089       24.2760664509       23.6473612332  MEOH      3594            0.0000000000
     53302      4286  MEOH      H1C            20.6875972881       25.4460704982       24.5914285031  MEOH      3594            0.0000000000
     53303      4286  MEOH      LP1A           19.4218032010       24.5380574461       25.9869924440  MEOH      3594            0.0000000000
     53304      4286  MEOH      LP1B           19.0971702549       24.0789120540       25.6458941313  MEOH      3594            0.0000000000
     53305      4287  MEOH      C1            -11.0528089391       11.0132461505       -4.8137295064  MEOH      3595            0.0000000000
     53306      4287  MEOH      DC1           -11.0625086525       11.0192129293       -4.8089834926  MEOH      3595            0.0000000000
     53307      4287  MEOH      O1            -11.4674231069       11.7168410180       -5.9892504882  MEOH      3595            0.0000000000
     53308      4287  MEOH      DO1           -11.4770042045       11.7257097263       -5.9809745454  MEOH      3595            0.0000000000
     53309      4287  MEOH      HO1           -12.3039129799       11.3426209174       -6.3072819468  MEOH      3595            0.0000000000
     53310      4287  MEOH      HO2           -11.3504158436       12.6647406233       -5.8198526141  MEOH      3595            0.0000000000
     53311      4287  MEOH      H1A            -9.9893487526       11.2542633787       -4.6009288276  MEOH      3595            0.0000000000
     53312      4287  MEOH      H1B           -11.1463375104        9.9156962526       -4.9584970047  MEOH      3595            0.0000000000
     53313      4287  MEOH      H1C           -11.6595291306       11.3092029917       -3.9313343810  MEOH      3595            0.0000000000
     53314      4287  MEOH      LP1A          -11.6639151358       11.9925978307       -5.9006555515  MEOH      3595            0.0000000000
     53315      4287  MEOH      LP1B          -11.3309557984       11.5654291257       -6.2737695782  MEOH      3595            0.0000000000
     53316      4288  MEOH      C1             20.4243418795      -19.3518901709        4.8086562806  MEOH      3596            0.0000000000
     53317      4288  MEOH      DC1            20.4244529368      -19.3509843172        4.8097116233  MEOH      3596            0.0000000000
     53318      4288  MEOH      O1             19.4093099974      -19.7173405495        5.7379815578  MEOH      3596            0.0000000000
     53319      4288  MEOH      DO1            19.4035579353      -19.7108955413        5.7364260942  MEOH      3596            0.0000000000
     53320      4288  MEOH      HO1            19.7273606085      -19.4856235297        6.6245767482  MEOH      3596            0.0000000000
     53321      4288  MEOH      HO2            18.5816840489      -19.3587013033        5.3811718310  MEOH      3596            0.0000000000
     53322      4288  MEOH      H1A            20.1009776850      -19.6783587920        3.7971352293  MEOH      3596            0.0000000000
     53323      4288  MEOH      H1B            21.3813667931      -19.8500964963        5.0736369860  MEOH      3596            0.0000000000
     53324      4288  MEOH      H1C            20.5677561864      -18.2504451964        4.7847333705  MEOH      3596            0.0000000000
     53325      4288  MEOH      LP1A           19.1860297853      -19.4514442168        5.7820846998  MEOH      3596            0.0000000000
     53326      4288  MEOH      LP1B           19.4553874345      -20.0484915080        5.8414992496  MEOH      3596            0.0000000000
     53327      4289  MEOH      C1             -3.1203538455      -10.3350796242        5.0606977094  MEOH      3597            0.0000000000
     53328      4289  MEOH      DC1            -3.1227492163      -10.3328776152        5.0512847966  MEOH      3597            0.0000000000
     53329      4289  MEOH      O1             -4.2632767987      -10.8888363028        5.6933989227  MEOH      3597            0.0000000000
     53330      4289  MEOH      DO1            -4.2633792033      -10.8803663481        5.6945472098  MEOH      3597            0.0000000000
     53331      4289  MEOH      HO1            -3.9492110996      -11.6325840717        6.2310809783  MEOH      3597            0.0000000000
     53332      4289  MEOH      HO2            -4.7428999871      -10.1501379541        6.0998301559  MEOH      3597            0.0000000000
     53333      4289  MEOH      H1A            -3.4158550161       -9.5656202682        4.3157598869  MEOH      3597            0.0000000000
     53334      4289  MEOH      H1B            -2.5423524421      -11.1349445671        4.5503532656  MEOH      3597            0.0000000000
     53335      4289  MEOH      H1C            -2.4885979277       -9.8440756863        5.8314898949  MEOH      3597            0.0000000000
     53336      4289  MEOH      LP1A           -4.3199313013      -10.7288781600        5.9995094582  MEOH      3597            0.0000000000
     53337      4289  MEOH      LP1B           -4.4061068762      -11.1343825467        5.4889322725  MEOH      3597            0.0000000000
     53338      4290  MEOH      C1             30.1259939436        3.9466017663      -34.2905670306  MEOH      3598            0.0000000000
     53339      4290  MEOH      DC1            30.1351005134        3.9407959601      -34.2913554889  MEOH      3598            0.0000000000
     53340      4290  MEOH      O1             30.7564978484        3.6740070068      -35.5432239129  MEOH      3598            0.0000000000
     53341      4290  MEOH      DO1            30.7643127585        3.6700384568      -35.5443756005  MEOH      3598            0.0000000000
     53342      4290  MEOH      HO1            30.0555802096        3.5905388045      -36.2085415234  MEOH      3598            0.0000000000
     53343      4290  MEOH      HO2            31.4630156767        4.3311357278      -35.6427950107  MEOH      3598            0.0000000000
     53344      4290  MEOH      H1A            30.8910503440        3.9983510468      -33.4866194473  MEOH      3598            0.0000000000
     53345      4290  MEOH      H1B            29.4035493958        3.1396676886      -34.0430750719  MEOH      3598            0.0000000000
     53346      4290  MEOH      H1C            29.5866823210        4.9164488476      -34.3440517385  MEOH      3598            0.0000000000
     53347      4290  MEOH      LP1A           30.8335675067        3.9739862018      -35.7062354166  MEOH      3598            0.0000000000
     53348      4290  MEOH      LP1B           30.7953695354        3.3286946894      -35.5850377314  MEOH      3598            0.0000000000
     53349      4291  MEOH      C1             15.9304595208       22.8043062390       -3.7762846491  MEOH      3599            0.0000000000
     53350      4291  MEOH      DC1            15.9361406423       22.7995305268       -3.7947229629  MEOH      3599            0.0000000000
     53351      4291  MEOH      O1             14.8214949615       21.9011048758       -3.7502261726  MEOH      3599            0.0000000000
     53352      4291  MEOH      DO1            14.8268866843       21.9007850459       -3.7516578786  MEOH      3599            0.0000000000
     53353      4291  MEOH      HO1            15.0753094405       21.0496202297       -4.1393946550  MEOH      3599            0.0000000000
     53354      4291  MEOH      HO2            14.4597566653       21.9486139744       -2.8514557395  MEOH      3599            0.0000000000
     53355      4291  MEOH      H1A            15.6132378255       23.7946790331       -3.3853202970  MEOH      3599            0.0000000000
     53356      4291  MEOH      H1B            16.2935215621       22.9322115750       -4.8184685012  MEOH      3599            0.0000000000
     53357      4291  MEOH      H1C            16.7506104535       22.4232673602       -3.1309298467  MEOH      3599            0.0000000000
     53358      4291  MEOH      LP1A           14.8197832554       21.7222973276       -3.4493525600  MEOH      3599            0.0000000000
     53359      4291  MEOH      LP1B           14.6311418010       21.9368226281       -4.0417564737  MEOH      3599            0.0000000000
     53360      4292  MEOH      C1              0.3832826409       36.3840369895       16.2089535838  MEOH      3600            0.0000000000
     53361      4292  MEOH      DC1             0.3897737275       36.3982421396       16.2187172739  MEOH      3600            0.0000000000
     53362      4292  MEOH      O1              0.6364936805       35.8855928332       14.8986865332  MEOH      3600            0.0000000000
     53363      4292  MEOH      DO1             0.6407564026       35.8957571123       14.9107042477  MEOH      3600            0.0000000000
     53364      4292  MEOH      HO1             0.2832757908       34.9832949543       14.8540137105  MEOH      3600            0.0000000000
     53365      4292  MEOH      HO2             0.2798519646       36.5566058045       14.2958198159  MEOH      3600            0.0000000000
     53366      4292  MEOH      H1A             0.7358378525       37.4357259861       16.2720097407  MEOH      3600            0.0000000000
     53367      4292  MEOH      H1B             0.9035245334       35.7805697600       16.9832252911  MEOH      3600            0.0000000000
     53368      4292  MEOH      H1C            -0.7094042373       36.3272941747       16.4016622740  MEOH      3600            0.0000000000
     53369      4292  MEOH      LP1A            0.3706113131       35.9670724224       14.6861597272  MEOH      3600            0.0000000000
     53370      4292  MEOH      LP1B            0.9499669650       35.7302718663       14.8882033489  MEOH      3600            0.0000000000
     53371      4293  MEOH      C1            -17.4325440834       35.6685827126       36.0190128669  MEOH      3601            0.0000000000
     53372      4293  MEOH      DC1           -17.4306269800       35.6586364447       36.0065735870  MEOH      3601            0.0000000000
     53373      4293  MEOH      O1            -17.5727785627       34.7033746203       34.9769252441  MEOH      3601            0.0000000000
     53374      4293  MEOH      DO1           -17.5693995990       34.6961315520       34.9653884138  MEOH      3601            0.0000000000
     53375      4293  MEOH      HO1           -16.9825885608       33.9653641468       35.1958231731  MEOH      3601            0.0000000000
     53376      4293  MEOH      HO2           -18.5249637789       34.5612595864       34.8584067591  MEOH      3601            0.0000000000
     53377      4293  MEOH      H1A           -18.0499121314       36.5633760899       35.7898349712  MEOH      3601            0.0000000000
     53378      4293  MEOH      H1B           -16.3702717521       35.9808642110       36.1105484358  MEOH      3601            0.0000000000
     53379      4293  MEOH      H1C           -17.7757382127       35.2333720499       36.9818890109  MEOH      3601            0.0000000000
     53380      4293  MEOH      LP1A          -17.8316638022       34.4807917356       35.0539660919  MEOH      3601            0.0000000000
     53381      4293  MEOH      LP1B          -17.3450560127       34.7708307727       34.7198413906  MEOH      3601            0.0000000000
     53382      4294  MEOH      C1              6.5847360867      -24.2408050620      -18.0861745587  MEOH      3602            0.0000000000
     53383      4294  MEOH      DC1             6.5956493451      -24.2506705769      -18.0714460272  MEOH      3602            0.0000000000
     53384      4294  MEOH      O1              6.8476386438      -25.1756894213      -19.1343681054  MEOH      3602            0.0000000000
     53385      4294  MEOH      DO1             6.8534947939      -25.1894626914      -19.1192465544  MEOH      3602            0.0000000000
     53386      4294  MEOH      HO1             6.2363592695      -24.9479640559      -19.8522669037  MEOH      3602            0.0000000000
     53387      4294  MEOH      HO2             7.7980786171      -25.1004576060      -19.3129851035  MEOH      3602            0.0000000000
     53388      4294  MEOH      H1A             7.3267761981      -24.3803595016      -17.2711763798  MEOH      3602            0.0000000000
     53389      4294  MEOH      H1B             5.5625533846      -24.4075234116      -17.6840943220  MEOH      3602            0.0000000000
     53390      4294  MEOH      H1C             6.6607011267      -23.2023346397      -18.4736400348  MEOH      3602            0.0000000000
     53391      4294  MEOH      LP1A            7.0981331531      -25.0518913164      -19.3451441242  MEOH      3602            0.0000000000
     53392      4294  MEOH      LP1B            6.6493141076      -25.4610618300      -19.0927752373  MEOH      3602            0.0000000000
     53393      4295  MEOH      C1             31.9278551950      -13.1219431342      -23.4739546951  MEOH      3603            0.0000000000
     53394      4295  MEOH      DC1            31.9209598525      -13.1330910309      -23.4667101297  MEOH      3603            0.0000000000
     53395      4295  MEOH      O1             31.1502892933      -13.9628306392      -22.6175982898  MEOH      3603            0.0000000000
     53396      4295  MEOH      DO1            31.1649198203      -13.9857050842      -22.6095930689  MEOH      3603            0.0000000000
     53397      4295  MEOH      HO1            30.5950612385      -14.5402906526      -23.1645550901  MEOH      3603            0.0000000000
     53398      4295  MEOH      HO2            31.6985516364      -14.2520468885      -21.8715001968  MEOH      3603            0.0000000000
     53399      4295  MEOH      H1A            32.2113249621      -12.1967009484      -22.9281591377  MEOH      3603            0.0000000000
     53400      4295  MEOH      H1B            31.3297213494      -12.8113544912      -24.3571826375  MEOH      3603            0.0000000000
     53401      4295  MEOH      H1C            32.8508851887      -13.6494164528      -23.7966132284  MEOH      3603            0.0000000000
     53402      4295  MEOH      LP1A           31.3267371633      -14.2564468811      -22.5457954229  MEOH      3603            0.0000000000
     53403      4295  MEOH      LP1B           30.8484739949      -13.8050786855      -22.5368403383  MEOH      3603            0.0000000000
     53404      4296  MEOH      C1            -33.0175393905       31.1220702679       10.4591655159  MEOH      3604            0.0000000000
     53405      4296  MEOH      DC1           -33.0141282854       31.1186304208       10.4496989538  MEOH      3604            0.0000000000
     53406      4296  MEOH      O1            -32.3352566095       31.1618002120        9.2026347801  MEOH      3604            0.0000000000
     53407      4296  MEOH      DO1           -32.3345225509       31.1550979745        9.1880274359  MEOH      3604            0.0000000000
     53408      4296  MEOH      HO1           -32.0943626897       32.0919715023        9.0697758698  MEOH      3604            0.0000000000
     53409      4296  MEOH      HO2           -31.6402343151       30.4875061645        9.2589512924  MEOH      3604            0.0000000000
     53410      4296  MEOH      H1A           -33.3381459477       30.0823127446       10.6837467445  MEOH      3604            0.0000000000
     53411      4296  MEOH      H1B           -33.9114677184       31.7812488062       10.4327685195  MEOH      3604            0.0000000000
     53412      4296  MEOH      H1C           -32.3434134513       31.4795603139       11.2666777979  MEOH      3604            0.0000000000
     53413      4296  MEOH      LP1A          -31.9928586773       31.1073339934        9.2505627162  MEOH      3604            0.0000000000
     53414      4296  MEOH      LP1B          -32.5649041905       31.2115860965        8.9432444290  MEOH      3604            0.0000000000
     53415      4297  MEOH      C1             10.7079053151      -26.2862278893       18.6063273480  MEOH      3605            0.0000000000
     53416      4297  MEOH      DC1            10.7062851754      -26.2904825043       18.6070494063  MEOH      3605            0.0000000000
     53417      4297  MEOH      O1              9.4443178334      -25.9487733416       18.0504629823  MEOH      3605            0.0000000000
     53418      4297  MEOH      DO1             9.4510438205      -25.9651398735       18.0460337159  MEOH      3605            0.0000000000
     53419      4297  MEOH      HO1             8.7796632777      -25.9989181928       18.7551755588  MEOH      3605            0.0000000000
     53420      4297  MEOH      HO2             9.5780202138      -25.0924942432       17.6147913402  MEOH      3605            0.0000000000
     53421      4297  MEOH      H1A            11.4786720160      -26.1709138523       17.8145304257  MEOH      3605            0.0000000000
     53422      4297  MEOH      H1B            10.7130686486      -27.3374337267       18.9658556884  MEOH      3605            0.0000000000
     53423      4297  MEOH      H1C            10.9556123984      -25.5965961715       19.4414143470  MEOH      3605            0.0000000000
     53424      4297  MEOH      LP1A            9.3930662578      -25.6031414120       18.0707569532  MEOH      3605            0.0000000000
     53425      4297  MEOH      LP1B            9.2876110324      -26.2360311998       17.9262619299  MEOH      3605            0.0000000000
     53426      4298  MEOH      C1             25.2965666065        8.5525854693       35.3783433527  MEOH      3606            0.0000000000
     53427      4298  MEOH      DC1            25.3047109501        8.5494358519       35.3747274611  MEOH      3606            0.0000000000
     53428      4298  MEOH      O1             24.6040756850        7.9116184043       34.3049794802  MEOH      3606            0.0000000000
     53429      4298  MEOH      DO1            24.6054960789        7.9051787118       34.3028301138  MEOH      3606            0.0000000000
     53430      4298  MEOH      HO1            23.6620065894        8.1060403746       34.4299031254  MEOH      3606            0.0000000000
     53431      4298  MEOH      HO2            25.0593412000        8.1830916117       33.4926152709  MEOH      3606            0.0000000000
     53432      4298  MEOH      H1A            26.3691152474        8.2638346664       35.3541899530  MEOH      3606            0.0000000000
     53433      4298  MEOH      H1B            24.8591532603        8.2477675988       36.3530620981  MEOH      3606            0.0000000000
     53434      4298  MEOH      H1C            25.2238782217        9.6559124071       35.2701441507  MEOH      3606            0.0000000000
     53435      4298  MEOH      LP1A           24.5828811054        8.1275331123       34.0303312895  MEOH      3606            0.0000000000
     53436      4298  MEOH      LP1B           24.5192440643        7.5844035611       34.3957211052  MEOH      3606            0.0000000000
     53437      4299  MEOH      C1            -16.4396273907       32.6429273032       22.4772036220  MEOH      3607            0.0000000000
     53438      4299  MEOH      DC1           -16.4446452395       32.6405723516       22.4727349301  MEOH      3607            0.0000000000
     53439      4299  MEOH      O1            -16.7886644928       34.0164263968       22.6316186336  MEOH      3607            0.0000000000
     53440      4299  MEOH      DO1           -16.8050327534       34.0165332697       22.6116418359  MEOH      3607            0.0000000000
     53441      4299  MEOH      HO1           -16.1614147339       34.5610030712       22.1307254458  MEOH      3607            0.0000000000
     53442      4299  MEOH      HO2           -17.7550742366       34.0803306481       22.5780606816  MEOH      3607            0.0000000000
     53443      4299  MEOH      H1A           -16.9321300936       32.0317576089       23.2634820033  MEOH      3607            0.0000000000
     53444      4299  MEOH      H1B           -15.3378928579       32.5265144192       22.5605706398  MEOH      3607            0.0000000000
     53445      4299  MEOH      H1C           -16.7804163461       32.2805271202       21.4838003822  MEOH      3607            0.0000000000
     53446      4299  MEOH      LP1A          -17.0166517734       34.1106456677       22.3833354709  MEOH      3607            0.0000000000
     53447      4299  MEOH      LP1B          -16.6281224222       34.1498844879       22.9125370941  MEOH      3607            0.0000000000
     53448      4300  MEOH      C1            -31.4106484810      -25.3841244721       21.6835765820  MEOH      3608            0.0000000000
     53449      4300  MEOH      DC1           -31.4123376974      -25.3845465159       21.6761895710  MEOH      3608            0.0000000000
     53450      4300  MEOH      O1            -30.3409370313      -25.5829488480       22.6039240918  MEOH      3608            0.0000000000
     53451      4300  MEOH      DO1           -30.3497780310      -25.5811995044       22.5897789421  MEOH      3608            0.0000000000
     53452      4300  MEOH      HO1           -29.5101748008      -25.2293997755       22.2493297184  MEOH      3608            0.0000000000
     53453      4300  MEOH      HO2           -30.6695319561      -25.2825572459       23.4657188827  MEOH      3608            0.0000000000
     53454      4300  MEOH      H1A           -32.3348074225      -25.8476528633       22.0902615732  MEOH      3608            0.0000000000
     53455      4300  MEOH      H1B           -31.1806606575      -25.8500767353       20.7015811186  MEOH      3608            0.0000000000
     53456      4300  MEOH      H1C           -31.5890625280      -24.2956885688       21.5501722636  MEOH      3608            0.0000000000
     53457      4300  MEOH      LP1A          -30.3195848426      -25.3109991931       22.8232126443  MEOH      3608            0.0000000000
     53458      4300  MEOH      LP1B          -30.1898161147      -25.8933886317       22.5465689766  MEOH      3608            0.0000000000
     53459      4301  MEOH      C1             -4.3379398777      -27.1354151301       12.8560305797  MEOH      3609            0.0000000000
     53460      4301  MEOH      DC1            -4.3491969804      -27.1287506656       12.8576931360  MEOH      3609            0.0000000000
     53461      4301  MEOH      O1             -3.3657872499      -26.0897444964       12.7929204703  MEOH      3609            0.0000000000
     53462      4301  MEOH      DO1            -3.3668457242      -26.0885566658       12.7997361245  MEOH      3609            0.0000000000
     53463      4301  MEOH      HO1            -2.6258519621      -26.4343519408       12.2688579939  MEOH      3609            0.0000000000
     53464      4301  MEOH      HO2            -3.8437451292      -25.2992848655       12.4968970952  MEOH      3609            0.0000000000
     53465      4301  MEOH      H1A            -5.1889353555      -26.8094555703       13.4915445938  MEOH      3609            0.0000000000
     53466      4301  MEOH      H1B            -3.8905474295      -28.0562399713       13.2875889306  MEOH      3609            0.0000000000
     53467      4301  MEOH      H1C            -4.7178878501      -27.3530709308       11.8349593329  MEOH      3609            0.0000000000
     53468      4301  MEOH      LP1A           -3.4286752847      -25.8843472208       12.5165926681  MEOH      3609            0.0000000000
     53469      4301  MEOH      LP1B           -3.1468704466      -26.1132412104       13.0649927725  MEOH      3609            0.0000000000
     53470      4302  MEOH      C1             16.8168863367       15.0830769621        1.6485235558  MEOH      3610            0.0000000000
     53471      4302  MEOH      DC1            16.8232966081       15.0670115047        1.6707675686  MEOH      3610            0.0000000000
     53472      4302  MEOH      O1             17.4376406160       16.2736918772        1.1567385174  MEOH      3610            0.0000000000
     53473      4302  MEOH      DO1            17.4441854485       16.2748629672        1.1811412995  MEOH      3610            0.0000000000
     53474      4302  MEOH      HO1            17.2629914018       17.0063904156        1.7679262985  MEOH      3610            0.0000000000
     53475      4302  MEOH      HO2            18.3258294755       16.0315009109        0.8511831427  MEOH      3610            0.0000000000
     53476      4302  MEOH      H1A            16.9042050776       14.2858727046        0.8796530795  MEOH      3610            0.0000000000
     53477      4302  MEOH      H1B            15.7342796991       15.2630267476        1.8214453428  MEOH      3610            0.0000000000
     53478      4302  MEOH      H1C            17.3069612499       14.7663068057        2.5939357665  MEOH      3610            0.0000000000
     53479      4302  MEOH      LP1A           17.7652573991       16.2966308347        1.2777387143  MEOH      3610            0.0000000000
     53480      4302  MEOH      LP1B           17.2179150927       16.4442836201        0.9443258255  MEOH      3610            0.0000000000
     53481      4303  MEOH      C1             25.5019084749       30.5068911073       20.5619662378  MEOH      3611            0.0000000000
     53482      4303  MEOH      DC1            25.4991875735       30.5034941959       20.5517324740  MEOH      3611            0.0000000000
     53483      4303  MEOH      O1             24.5293523107       31.2458391838       19.8246062456  MEOH      3611            0.0000000000
     53484      4303  MEOH      DO1            24.5227604245       31.2466215515       19.8137998251  MEOH      3611            0.0000000000
     53485      4303  MEOH      HO1            24.6696212497       31.0377024968       18.8876410678  MEOH      3611            0.0000000000
     53486      4303  MEOH      HO2            23.6830475283       31.0727787704       20.2658752216  MEOH      3611            0.0000000000
     53487      4303  MEOH      H1A            25.4630813175       30.7908685921       21.6353581699  MEOH      3611            0.0000000000
     53488      4303  MEOH      H1B            26.5166446986       30.7350589430       20.1713630676  MEOH      3611            0.0000000000
     53489      4303  MEOH      H1C            25.3109358896       29.4169992696       20.4620349896  MEOH      3611            0.0000000000
     53490      4303  MEOH      LP1A           24.2357284906       31.0581373281       19.7921552729  MEOH      3611            0.0000000000
     53491      4303  MEOH      LP1B           24.6556760491       31.5619113647       19.7431158191  MEOH      3611            0.0000000000
     53492      4304  MEOH      C1             25.8397394846       13.7953480986       29.0548510838  MEOH      3612            0.0000000000
     53493      4304  MEOH      DC1            25.8469522448       13.8057310016       29.0415655912  MEOH      3612            0.0000000000
     53494      4304  MEOH      O1             26.8583073499       13.7799060159       28.0534496813  MEOH      3612            0.0000000000
     53495      4304  MEOH      DO1            26.8654481283       13.8115579499       28.0410151370  MEOH      3612            0.0000000000
     53496      4304  MEOH      HO1            27.6896088434       13.9027929501       28.5379459438  MEOH      3612            0.0000000000
     53497      4304  MEOH      HO2            26.7383155120       12.9390897980       27.5849093435  MEOH      3612            0.0000000000
     53498      4304  MEOH      H1A            24.8631613879       13.4982244801       28.6162923324  MEOH      3612            0.0000000000
     53499      4304  MEOH      H1B            25.7489127497       14.8099775025       29.4982455781  MEOH      3612            0.0000000000
     53500      4304  MEOH      H1C            26.0781576993       13.0601375203       29.8529382723  MEOH      3612            0.0000000000
     53501      4304  MEOH      LP1A           26.9680736547       13.4519890550       27.9993957724  MEOH      3612            0.0000000000
     53502      4304  MEOH      LP1B           26.9112675050       14.1036955158       27.9315662052  MEOH      3612            0.0000000000
     53503      4305  MEOH      C1            -12.6586235527        3.1549925327       19.2765384056  MEOH      3613            0.0000000000
     53504      4305  MEOH      DC1           -12.6507796366        3.1606992993       19.2840793839  MEOH      3613            0.0000000000
     53505      4305  MEOH      O1            -13.5505033762        3.1515522812       20.3948705244  MEOH      3613            0.0000000000
     53506      4305  MEOH      DO1           -13.5495636516        3.1621286108       20.3966877232  MEOH      3613            0.0000000000
     53507      4305  MEOH      HO1           -14.1020502969        2.3579798426       20.3115711908  MEOH      3613            0.0000000000
     53508      4305  MEOH      HO2           -12.9885489871        3.2612709140       21.1778578082  MEOH      3613            0.0000000000
     53509      4305  MEOH      H1A           -12.0081077639        4.0556147991       19.2710846448  MEOH      3613            0.0000000000
     53510      4305  MEOH      H1B           -13.2557723698        3.1521375349       18.3396680091  MEOH      3613            0.0000000000
     53511      4305  MEOH      H1C           -12.0187940281        2.2470387824       19.3001851141  MEOH      3613            0.0000000000
     53512      4305  MEOH      LP1A          -13.4030099510        2.9850535693       20.6650998131  MEOH      3613            0.0000000000
     53513      4305  MEOH      LP1B          -13.8426171355        3.3272784857       20.3155619327  MEOH      3613            0.0000000000
     53514      4306  MEOH      C1             28.1197248659        5.7299406779       20.1558236607  MEOH      3614            0.0000000000
     53515      4306  MEOH      DC1            28.1311673618        5.7419550762       20.1523893938  MEOH      3614            0.0000000000
     53516      4306  MEOH      O1             27.3824403418        6.2990703325       21.2401511940  MEOH      3614            0.0000000000
     53517      4306  MEOH      DO1            27.3914187586        6.3124609873       21.2344643926  MEOH      3614            0.0000000000
     53518      4306  MEOH      HO1            27.3153860108        7.2574107686       21.1060343597  MEOH      3614            0.0000000000
     53519      4306  MEOH      HO2            26.5804185342        5.7599704324       21.3240101198  MEOH      3614            0.0000000000
     53520      4306  MEOH      H1A            28.2375153106        4.6385938347       20.3273126662  MEOH      3614            0.0000000000
     53521      4306  MEOH      H1B            29.1271936017        6.1941302523       20.0937286802  MEOH      3614            0.0000000000
     53522      4306  MEOH      H1C            27.5679376190        5.8723669321       19.2021116513  MEOH      3614            0.0000000000
     53523      4306  MEOH      LP1A           27.0404471731        6.2985021152       21.1657176685  MEOH      3614            0.0000000000
     53524      4306  MEOH      LP1B           27.5997561459        6.3845386583       21.5008598562  MEOH      3614            0.0000000000
     53525      4307  MEOH      C1              7.0065724748      -30.4181622000       13.3442350217  MEOH      3615            0.0000000000
     53526      4307  MEOH      DC1             7.0093283505      -30.3917990808       13.3471253924  MEOH      3615            0.0000000000
     53527      4307  MEOH      O1              6.9098694467      -29.0759617532       12.8558677708  MEOH      3615            0.0000000000
     53528      4307  MEOH      DO1             6.9138248084      -29.0585321511       12.8511093715  MEOH      3615            0.0000000000
     53529      4307  MEOH      HO1             6.5046310492      -28.5533617803       13.5654952155  MEOH      3615            0.0000000000
     53530      4307  MEOH      HO2             7.7931143847      -28.8522359750       12.5231138744  MEOH      3615            0.0000000000
     53531      4307  MEOH      H1A             7.3646885581      -31.0943478311       12.5387247091  MEOH      3615            0.0000000000
     53532      4307  MEOH      H1B             6.0163885069      -30.7971775875       13.6762049691  MEOH      3615            0.0000000000
     53533      4307  MEOH      H1C             7.7048324190      -30.4681061753       14.2069398676  MEOH      3615            0.0000000000
     53534      4307  MEOH      LP1A            7.2024270911      -28.8995353884       12.9319188228  MEOH      3615            0.0000000000
     53535      4307  MEOH      LP1B            6.6059112634      -29.0311828011       12.6882244941  MEOH      3615            0.0000000000
     53536      4308  MEOH      C1             -1.2725140920      -22.6398929703       20.5920383786  MEOH      3616            0.0000000000
     53537      4308  MEOH      DC1            -1.2795566536      -22.6396892229       20.5998251427  MEOH      3616            0.0000000000
     53538      4308  MEOH      O1             -1.9297789525      -23.8396107670       20.9967164224  MEOH      3616            0.0000000000
     53539      4308  MEOH      DO1            -1.9332923223      -23.8430170805       21.0150645742  MEOH      3616            0.0000000000
     53540      4308  MEOH      HO1            -2.8625100236      -23.5983778218       21.1094968070  MEOH      3616            0.0000000000
     53541      4308  MEOH      HO2            -1.6935750779      -24.4906363094       20.3175452560  MEOH      3616            0.0000000000
     53542      4308  MEOH      H1A            -0.1895882699      -22.8231645453       20.4246938433  MEOH      3616            0.0000000000
     53543      4308  MEOH      H1B            -1.3784340018      -21.8672871512       21.3833551434  MEOH      3616            0.0000000000
     53544      4308  MEOH      H1C            -1.7161572727      -22.2759159800       19.6407116844  MEOH      3616            0.0000000000
     53545      4308  MEOH      LP1A           -2.0373733824      -24.0178970397       20.7154026410  MEOH      3616            0.0000000000
     53546      4308  MEOH      LP1B           -1.9225008366      -23.8683038167       21.3454623728  MEOH      3616            0.0000000000
     53547      4309  MEOH      C1              6.3805095794        2.2977563679        5.4251558399  MEOH      3617            0.0000000000
     53548      4309  MEOH      DC1             6.3825757340        2.2974498202        5.4221474743  MEOH      3617            0.0000000000
     53549      4309  MEOH      O1              7.6169919074        2.9376978594        5.7495285388  MEOH      3617            0.0000000000
     53550      4309  MEOH      DO1             7.6206990617        2.9436527115        5.7519180342  MEOH      3617            0.0000000000
     53551      4309  MEOH      HO1             8.0927785121        3.0611271343        4.9132915375  MEOH      3617            0.0000000000
     53552      4309  MEOH      HO2             7.3857599287        3.6908674894        6.3153618009  MEOH      3617            0.0000000000
     53553      4309  MEOH      H1A             5.8625746865        1.9916381077        6.3591558714  MEOH      3617            0.0000000000
     53554      4309  MEOH      H1B             6.5723439542        1.3990173603        4.8008251829  MEOH      3617            0.0000000000
     53555      4309  MEOH      H1C             5.7247574116        2.9960352282        4.8623799274  MEOH      3617            0.0000000000
     53556      4309  MEOH      LP1A            7.5767436669        3.2853419630        5.7446647616  MEOH      3617            0.0000000000
     53557      4309  MEOH      LP1B            7.8614027743        2.6972348080        5.8198197122  MEOH      3617            0.0000000000
     53558      4310  MEOH      C1              6.5004722007       -1.9896316740      -27.6626172193  MEOH      3618            0.0000000000
     53559      4310  MEOH      DC1             6.5038313988       -1.9847847181      -27.6469614453  MEOH      3618            0.0000000000
     53560      4310  MEOH      O1              7.6143195950       -2.2811244176      -26.8133142648  MEOH      3618            0.0000000000
     53561      4310  MEOH      DO1             7.6142577655       -2.2657863145      -26.7942571496  MEOH      3618            0.0000000000
     53562      4310  MEOH      HO1             8.4086409781       -2.2534349637      -27.3693599790  MEOH      3618            0.0000000000
     53563      4310  MEOH      HO2             7.5076032946       -1.7785302886      -25.9905683911  MEOH      3618            0.0000000000
     53564      4310  MEOH      H1A             5.5643933249       -2.3439999868      -27.1804342279  MEOH      3618            0.0000000000
     53565      4310  MEOH      H1B             6.6201626805       -2.5120812575      -28.6357778556  MEOH      3618            0.0000000000
     53566      4310  MEOH      H1C             6.4205009736       -0.8976859545      -27.8512442306  MEOH      3618            0.0000000000
     53567      4310  MEOH      LP1A            7.7382860252       -1.9855179254      -26.6727826813  MEOH      3618            0.0000000000
     53568      4310  MEOH      LP1B            7.6696386887       -2.6265641267      -26.8027688760  MEOH      3618            0.0000000000
     53569      4311  MEOH      C1            -19.3699723056       18.2956080814        8.0832494050  MEOH      3619            0.0000000000
     53570      4311  MEOH      DC1           -19.3843324040       18.3007829643        8.0862948764  MEOH      3619            0.0000000000
     53571      4311  MEOH      O1            -18.4848034833       17.2931206096        8.5600254441  MEOH      3619            0.0000000000
     53572      4311  MEOH      DO1           -18.4996309924       17.3022527044        8.5615548322  MEOH      3619            0.0000000000
     53573      4311  MEOH      HO1           -18.9497034499       16.4424757987        8.5942515637  MEOH      3619            0.0000000000
     53574      4311  MEOH      HO2           -17.6780162358       17.3789584321        8.0283994425  MEOH      3619            0.0000000000
     53575      4311  MEOH      H1A           -18.8728155813       19.2852082596        8.1718365303  MEOH      3619            0.0000000000
     53576      4311  MEOH      H1B           -20.2985287846       18.2917048332        8.6932400866  MEOH      3619            0.0000000000
     53577      4311  MEOH      H1C           -19.6106863107       18.1147651336        7.0138226442  MEOH      3619            0.0000000000
     53578      4311  MEOH      LP1A          -18.3120093019       17.1487247243        8.2920851537  MEOH      3619            0.0000000000
     53579      4311  MEOH      LP1B          -18.4999808690       17.2762897575        8.9092909153  MEOH      3619            0.0000000000
     53580      4312  MEOH      C1             28.0446376831      -32.5120721881       -3.5791769616  MEOH      3620            0.0000000000
     53581      4312  MEOH      DC1            28.0344162392      -32.5248709384       -3.5816278281  MEOH      3620            0.0000000000
     53582      4312  MEOH      O1             27.8232649816      -31.5025331502       -4.5685908520  MEOH      3620            0.0000000000
     53583      4312  MEOH      DO1            27.8024512675      -31.5047334979       -4.5693650433  MEOH      3620            0.0000000000
     53584      4312  MEOH      HO1            27.4718664852      -31.9234400940       -5.3687511118  MEOH      3620            0.0000000000
     53585      4312  MEOH      HO2            27.3791504620      -30.7634760708       -4.1242295935  MEOH      3620            0.0000000000
     53586      4312  MEOH      H1A            28.6807758096      -32.0926044312       -2.7706622212  MEOH      3620            0.0000000000
     53587      4312  MEOH      H1B            28.5814729327      -33.3763404875       -4.0254607520  MEOH      3620            0.0000000000
     53588      4312  MEOH      H1C            27.0765316091      -32.8453401020       -3.1478718166  MEOH      3620            0.0000000000
     53589      4312  MEOH      LP1A           27.5004270728      -31.3714132416       -4.5356780248  MEOH      3620            0.0000000000
     53590      4312  MEOH      LP1B           28.1128496974      -31.4567275644       -4.7597518855  MEOH      3620            0.0000000000
     53591      4313  MEOH      C1             23.3009570922      -24.3036480141      -16.6035331037  MEOH      3621            0.0000000000
     53592      4313  MEOH      DC1            23.2899867129      -24.2922560466      -16.5740760440  MEOH      3621            0.0000000000
     53593      4313  MEOH      O1             23.2896990817      -23.0634547833      -15.8904000534  MEOH      3621            0.0000000000
     53594      4313  MEOH      DO1            23.2854623747      -23.0409073655      -15.8678356850  MEOH      3621            0.0000000000
     53595      4313  MEOH      HO1            23.3125211243      -23.3036777330      -14.9508937528  MEOH      3621            0.0000000000
     53596      4313  MEOH      HO2            24.0176591324      -22.5517531096      -16.2765807915  MEOH      3621            0.0000000000
     53597      4313  MEOH      H1A            23.2485276395      -24.1231010289      -17.6985102444  MEOH      3621            0.0000000000
     53598      4313  MEOH      H1B            22.4355637205      -24.9328339451      -16.3043001201  MEOH      3621            0.0000000000
     53599      4313  MEOH      H1C            24.2403086255      -24.8559509327      -16.3869662927  MEOH      3621            0.0000000000
     53600      4313  MEOH      LP1A           23.6173200559      -22.9502203278      -15.8420011342  MEOH      3621            0.0000000000
     53601      4313  MEOH      LP1B           22.9598886521      -22.9634292245      -15.8294085126  MEOH      3621            0.0000000000
     53602      4314  MEOH      C1             -8.1994561601      -22.1523549796       37.1647244985  MEOH      3622            0.0000000000
     53603      4314  MEOH      DC1            -8.1965111431      -22.1658157645       37.1372335221  MEOH      3622            0.0000000000
     53604      4314  MEOH      O1             -8.2168243929      -22.2211276040       35.7369738727  MEOH      3622            0.0000000000
     53605      4314  MEOH      DO1            -8.2108661915      -22.2388235001       35.7179148499  MEOH      3622            0.0000000000
     53606      4314  MEOH      HO1            -7.3487249676      -21.9279144836       35.4186509933  MEOH      3622            0.0000000000
     53607      4314  MEOH      HO2            -8.6429244568      -23.0526251162       35.4763004706  MEOH      3622            0.0000000000
     53608      4314  MEOH      H1A            -9.2388998687      -22.1507485424       37.5569937888  MEOH      3622            0.0000000000
     53609      4314  MEOH      H1B            -7.6952342150      -21.2212373261       37.5010296385  MEOH      3622            0.0000000000
     53610      4314  MEOH      H1C            -7.6599847254      -23.0253058739       37.5904571703  MEOH      3622            0.0000000000
     53611      4314  MEOH      LP1A           -8.1140882476      -22.5385364876       35.6311585381  MEOH      3622            0.0000000000
     53612      4314  MEOH      LP1B           -8.3332919963      -21.9190524757       35.6039854738  MEOH      3622            0.0000000000
     53613      4315  MEOH      C1             -1.8435852519       -8.8234909992       -2.1438003469  MEOH      3623            0.0000000000
     53614      4315  MEOH      DC1            -1.8459734389       -8.8279594760       -2.1525455256  MEOH      3623            0.0000000000
     53615      4315  MEOH      O1             -2.8476187155       -9.7175516346       -1.6589590496  MEOH      3623            0.0000000000
     53616      4315  MEOH      DO1            -2.8522827074       -9.7287800602       -1.6659590530  MEOH      3623            0.0000000000
     53617      4315  MEOH      HO1            -3.5835951919       -9.7181131359       -2.2908121265  MEOH      3623            0.0000000000
     53618      4315  MEOH      HO2            -2.3936735170      -10.5317945223       -1.3909249518  MEOH      3623            0.0000000000
     53619      4315  MEOH      H1A            -1.0169172841       -8.7626296282       -1.4040456814  MEOH      3623            0.0000000000
     53620      4315  MEOH      H1B            -2.2666441000       -7.8023230814       -2.2558641447  MEOH      3623            0.0000000000
     53621      4315  MEOH      H1C            -1.4310039106       -9.1799276466       -3.1118140634  MEOH      3623            0.0000000000
     53622      4315  MEOH      LP1A           -2.7873254813      -10.0411372170       -1.7779426484  MEOH      3623            0.0000000000
     53623      4315  MEOH      LP1B           -3.0695916636       -9.5460947375       -1.4496015975  MEOH      3623            0.0000000000
     53624      4316  MEOH      C1              4.4685115209      -20.9251985949       -6.4188723610  MEOH      3624            0.0000000000
     53625      4316  MEOH      DC1             4.4816219797      -20.9285650466       -6.4299541304  MEOH      3624            0.0000000000
     53626      4316  MEOH      O1              3.2338939536      -20.8573087739       -5.7098527549  MEOH      3624            0.0000000000
     53627      4316  MEOH      DO1             3.2355795010      -20.8580625890       -5.7233717009  MEOH      3624            0.0000000000
     53628      4316  MEOH      HO1             3.2341353896      -20.0252473605       -5.2112810489  MEOH      3624            0.0000000000
     53629      4316  MEOH      HO2             2.5405760340      -21.0483724740       -6.3607789616  MEOH      3624            0.0000000000
     53630      4316  MEOH      H1A             4.5697933552      -21.9224407141       -6.8980081934  MEOH      3624            0.0000000000
     53631      4316  MEOH      H1B             5.3139261479      -20.7748074942       -5.7139059598  MEOH      3624            0.0000000000
     53632      4316  MEOH      H1C             4.4921743306      -20.1353567918       -7.1998403488  MEOH      3624            0.0000000000
     53633      4316  MEOH      LP1A            2.9901746387      -20.7033449568       -5.9083371085  MEOH      3624            0.0000000000
     53634      4316  MEOH      LP1B            3.2671468919      -21.0100100040       -5.3966809547  MEOH      3624            0.0000000000
     53635      4317  MEOH      C1             -6.5686275588      -36.1793621777       -3.2830995427  MEOH      3625            0.0000000000
     53636      4317  MEOH      DC1            -6.5693056769      -36.1676684385       -3.2775855773  MEOH      3625            0.0000000000
     53637      4317  MEOH      O1             -6.3075748430      -34.7792071932       -3.1644773038  MEOH      3625            0.0000000000
     53638      4317  MEOH      DO1            -6.3110822479      -34.7698332795       -3.1520402528  MEOH      3625            0.0000000000
     53639      4317  MEOH      HO1            -5.7344138469      -34.5406022370       -3.9097652665  MEOH      3625            0.0000000000
     53640      4317  MEOH      HO2            -7.1711309558      -34.3507463401       -3.0568105114  MEOH      3625            0.0000000000
     53641      4317  MEOH      H1A            -7.1768879036      -36.5257077192       -2.4203219820  MEOH      3625            0.0000000000
     53642      4317  MEOH      H1B            -5.6152633013      -36.7493392229       -3.3064182172  MEOH      3625            0.0000000000
     53643      4317  MEOH      H1C            -7.1307382577      -36.3791797104       -4.2203431167  MEOH      3625            0.0000000000
     53644      4317  MEOH      LP1A           -6.5541867469      -34.5967597249       -3.3329869182  MEOH      3625            0.0000000000
     53645      4317  MEOH      LP1B           -6.0236861830      -34.7267088886       -2.9666107914  MEOH      3625            0.0000000000
     53646      4318  MEOH      C1            -24.3331298223       -8.1233655144      -30.0918298225  MEOH      3626            0.0000000000
     53647      4318  MEOH      DC1           -24.3167402884       -8.1290471968      -30.0847760470  MEOH      3626            0.0000000000
     53648      4318  MEOH      O1            -25.0507013733       -7.7652975346      -31.2729839755  MEOH      3626            0.0000000000
     53649      4318  MEOH      DO1           -25.0238576734       -7.7647002246      -31.2696935033  MEOH      3626            0.0000000000
     53650      4318  MEOH      HO1           -25.6812799212       -8.4663027175      -31.5007172152  MEOH      3626            0.0000000000
     53651      4318  MEOH      HO2           -25.3836626614       -6.8673184652      -31.1191321888  MEOH      3626            0.0000000000
     53652      4318  MEOH      H1A           -23.6730894995       -7.2777382651      -29.8027237389  MEOH      3626            0.0000000000
     53653      4318  MEOH      H1B           -23.7150645515       -9.0288352314      -30.2719434352  MEOH      3626            0.0000000000
     53654      4318  MEOH      H1C           -25.0497374207       -8.3278108670      -29.2678172933  MEOH      3626            0.0000000000
     53655      4318  MEOH      LP1A          -25.3375781860       -7.5835563221      -31.1882973414  MEOH      3626            0.0000000000
     53656      4318  MEOH      LP1B          -24.8783074279       -7.8771313520      -31.5563098036  MEOH      3626            0.0000000000
     53657      4319  MEOH      C1              9.6670046851        7.6186208052       15.7806230945  MEOH      3627            0.0000000000
     53658      4319  MEOH      DC1             9.6824000910        7.6237316198       15.7586108405  MEOH      3627            0.0000000000
     53659      4319  MEOH      O1              9.1016165490        8.0123668972       17.0230637510  MEOH      3627            0.0000000000
     53660      4319  MEOH      DO1             9.1185521314        8.0153151233       17.0052603491  MEOH      3627            0.0000000000
     53661      4319  MEOH      HO1             8.8909124797        7.2318973767       17.5591338236  MEOH      3627            0.0000000000
     53662      4319  MEOH      HO2             9.6487045052        8.7363339613       17.3657975529  MEOH      3627            0.0000000000
     53663      4319  MEOH      H1A             9.6877794755        8.5010388828       15.1059174221  MEOH      3627            0.0000000000
     53664      4319  MEOH      H1B             9.0421206210        6.8228805728       15.3216695113  MEOH      3627            0.0000000000
     53665      4319  MEOH      H1C            10.7011645321        7.2475240900       15.9453095833  MEOH      3627            0.0000000000
     53666      4319  MEOH      LP1A            9.3548603570        8.0615631818       17.2595955656  MEOH      3627            0.0000000000
     53667      4319  MEOH      LP1B            8.7540633476        8.0405486851       16.9928551595  MEOH      3627            0.0000000000
     53668      4320  MEOH      C1            -16.7626103290        1.0710143074       33.5363395778  MEOH      3628            0.0000000000
     53669      4320  MEOH      DC1           -16.7562522756        1.0633278810       33.5379835562  MEOH      3628            0.0000000000
     53670      4320  MEOH      O1            -15.8704903959        0.6691036716       34.5707775697  MEOH      3628            0.0000000000
     53671      4320  MEOH      DO1           -15.8868345389        0.6580236122       34.5864852366  MEOH      3628            0.0000000000
     53672      4320  MEOH      HO1           -15.1112862562        0.2531900384       34.1331419615  MEOH      3628            0.0000000000
     53673      4320  MEOH      HO2           -15.7344745658        1.4605448570       35.1148552700  MEOH      3628            0.0000000000
     53674      4320  MEOH      H1A           -17.6765539323        1.5253708347       33.9751883411  MEOH      3628            0.0000000000
     53675      4320  MEOH      H1B           -17.0638771263        0.1988616666       32.9175430943  MEOH      3628            0.0000000000
     53676      4320  MEOH      H1C           -16.2703540776        1.8325608534       32.8944270891  MEOH      3628            0.0000000000
     53677      4320  MEOH      LP1A          -15.6486184264        0.9293294563       34.6453119253  MEOH      3628            0.0000000000
     53678      4320  MEOH      LP1B          -15.9496034045        0.3454751318       34.6780421962  MEOH      3628            0.0000000000
     53679      4321  MEOH      C1            -24.3294007109       29.7298821287       25.1375087683  MEOH      3629            0.0000000000
     53680      4321  MEOH      DC1           -24.3289117401       29.7320038671       25.1244562849  MEOH      3629            0.0000000000
     53681      4321  MEOH      O1            -25.0120990613       29.0094774394       24.1082257541  MEOH      3629            0.0000000000
     53682      4321  MEOH      DO1           -25.0124332977       29.0254203367       24.0895381690  MEOH      3629            0.0000000000
     53683      4321  MEOH      HO1           -24.8665084232       28.0653448752       24.2765025126  MEOH      3629            0.0000000000
     53684      4321  MEOH      HO2           -25.9099593908       29.3753399666       24.0783687550  MEOH      3629            0.0000000000
     53685      4321  MEOH      H1A           -24.2774891420       30.8109076946       24.8864910090  MEOH      3629            0.0000000000
     53686      4321  MEOH      H1B           -23.2923144334       29.3503804920       25.2589647718  MEOH      3629            0.0000000000
     53687      4321  MEOH      H1C           -24.8716814395       29.6199146297       26.1009192532  MEOH      3629            0.0000000000
     53688      4321  MEOH      LP1A          -25.3421152397       28.9454465971       24.2056391683  MEOH      3629            0.0000000000
     53689      4321  MEOH      LP1B          -24.7998812492       28.9627958436       23.8338456732  MEOH      3629            0.0000000000
     53690      4322  MEOH      C1             14.8480646330       -0.7857981212      -30.5179236577  MEOH      3630            0.0000000000
     53691      4322  MEOH      DC1            14.8539052721       -0.7830719756      -30.5045210105  MEOH      3630            0.0000000000
     53692      4322  MEOH      O1             16.1733567304       -1.1335865032      -30.9218597437  MEOH      3630            0.0000000000
     53693      4322  MEOH      DO1            16.1754890046       -1.1381503106      -30.9067581678  MEOH      3630            0.0000000000
     53694      4322  MEOH      HO1            16.8090309374       -0.7533465648      -30.2955723562  MEOH      3630            0.0000000000
     53695      4322  MEOH      HO2            16.1593401012       -2.0838886618      -31.1158425838  MEOH      3630            0.0000000000
     53696      4322  MEOH      H1A            14.1423011867       -1.0360321824      -31.3386561798  MEOH      3630            0.0000000000
     53697      4322  MEOH      H1B            14.7733774253        0.3048967115      -30.3201166739  MEOH      3630            0.0000000000
     53698      4322  MEOH      H1C            14.5617927301       -1.3615328265      -29.6118889187  MEOH      3630            0.0000000000
     53699      4322  MEOH      LP1A           16.2661481553       -1.4388306183      -30.7779299636  MEOH      3630            0.0000000000
     53700      4322  MEOH      LP1B           16.2984404806       -0.8923766208      -31.1424767151  MEOH      3630            0.0000000000
     53701      4323  MEOH      C1             10.1109556810        3.0211025764       27.6313808763  MEOH      3631            0.0000000000
     53702      4323  MEOH      DC1            10.1176757342        3.0324741961       27.6208304667  MEOH      3631            0.0000000000
     53703      4323  MEOH      O1             10.2783008634        4.1117697374       26.7245761385  MEOH      3631            0.0000000000
     53704      4323  MEOH      DO1            10.2839715296        4.1189459075       26.7090276471  MEOH      3631            0.0000000000
     53705      4323  MEOH      HO1             9.3964404664        4.5014722083       26.6180199360  MEOH      3631            0.0000000000
     53706      4323  MEOH      HO2            11.0173192626        4.6353048888       27.0719415822  MEOH      3631            0.0000000000
     53707      4323  MEOH      H1A            11.0761951261        2.4928011851       27.7847805312  MEOH      3631            0.0000000000
     53708      4323  MEOH      H1B             9.3611426646        2.2980389724       27.2450125742  MEOH      3631            0.0000000000
     53709      4323  MEOH      H1C             9.7465468106        3.3913244654       28.6134516118  MEOH      3631            0.0000000000
     53710      4323  MEOH      LP1A           10.3564020324        4.4035514847       26.9013913510  MEOH      3631            0.0000000000
     53711      4323  MEOH      LP1B           10.2394683250        4.0004843222       26.3950194813  MEOH      3631            0.0000000000
     53712      4324  MEOH      C1            -20.7721503296        0.7114017229       24.0294976660  MEOH      3632            0.0000000000
     53713      4324  MEOH      DC1           -20.7858861240        0.7159722435       24.0488673299  MEOH      3632            0.0000000000
     53714      4324  MEOH      O1            -21.8853660596        1.5926956200       24.1674048168  MEOH      3632            0.0000000000
     53715      4324  MEOH      DO1           -21.9055588195        1.5892083742       24.1770791979  MEOH      3632            0.0000000000
     53716      4324  MEOH      HO1           -22.4462276028        1.4242820109       23.3941188502  MEOH      3632            0.0000000000
     53717      4324  MEOH      HO2           -22.2023168402        1.4908779848       25.0784895394  MEOH      3632            0.0000000000
     53718      4324  MEOH      H1A           -19.9834147879        0.9561018404       24.7726928610  MEOH      3632            0.0000000000
     53719      4324  MEOH      H1B           -20.3160659870        0.8114692274       23.0213833029  MEOH      3632            0.0000000000
     53720      4324  MEOH      H1C           -21.1013946140       -0.3404772761       24.1690317958  MEOH      3632            0.0000000000
     53721      4324  MEOH      LP1A          -22.1389045694        1.4373150161       24.3519992153  MEOH      3632            0.0000000000
     53722      4324  MEOH      LP1B          -21.8142534220        1.9000172661       24.0157591817  MEOH      3632            0.0000000000
     53723      4325  MEOH      C1             16.5220427907       21.1309959980      -35.8519629375  MEOH      3633            0.0000000000
     53724      4325  MEOH      DC1            16.5222938536       21.1342879356      -35.8474767459  MEOH      3633            0.0000000000
     53725      4325  MEOH      O1             16.9912795483       20.1189102944      -36.7415234263  MEOH      3633            0.0000000000
     53726      4325  MEOH      DO1            16.9836659133       20.1180979375      -36.7402350609  MEOH      3633            0.0000000000
     53727      4325  MEOH      HO1            17.9456877161       20.0189239171      -36.6000745845  MEOH      3633            0.0000000000
     53728      4325  MEOH      HO2            16.3878221712       19.3674899365      -36.6314932493  MEOH      3633            0.0000000000
     53729      4325  MEOH      H1A            15.4578683913       21.3624123258      -36.0717363032  MEOH      3633            0.0000000000
     53730      4325  MEOH      H1B            17.1195375052       22.0549231349      -36.0058450750  MEOH      3633            0.0000000000
     53731      4325  MEOH      H1C            16.6089448172       20.7935920141      -34.7970091047  MEOH      3633            0.0000000000
     53732      4325  MEOH      LP1A           16.9673999624       19.8048769695      -36.5888380103  MEOH      3633            0.0000000000
     53733      4325  MEOH      LP1B           17.0832438058       20.2617478161      -37.0475299912  MEOH      3633            0.0000000000
     53734      4326  MEOH      C1             15.3750458826      -20.4738273632      -17.0067429676  MEOH      3634            0.0000000000
     53735      4326  MEOH      DC1            15.3887579226      -20.5060905363      -16.9861250337  MEOH      3634            0.0000000000
     53736      4326  MEOH      O1             15.1235631605      -19.1087242401      -16.7266742824  MEOH      3634            0.0000000000
     53737      4326  MEOH      DO1            15.1491930269      -19.1298555121      -16.7078033909  MEOH      3634            0.0000000000
     53738      4326  MEOH      HO1            15.4010283424      -18.5896325617      -17.4976845951  MEOH      3634            0.0000000000
     53739      4326  MEOH      HO2            14.1878590301      -19.0777860746      -16.4729015277  MEOH      3634            0.0000000000
     53740      4326  MEOH      H1A            14.9327412178      -21.0761113997      -16.1845863384  MEOH      3634            0.0000000000
     53741      4326  MEOH      H1B            16.4718094988      -20.6364737988      -17.0772887647  MEOH      3634            0.0000000000
     53742      4326  MEOH      H1C            14.8868113796      -20.7545451075      -17.9644201673  MEOH      3634            0.0000000000
     53743      4326  MEOH      LP1A           14.7988217421      -19.0239978032      -16.8259941800  MEOH      3634            0.0000000000
     53744      4326  MEOH      LP1B           15.4016746397      -18.9655255299      -16.5696770386  MEOH      3634            0.0000000000
     53745      4327  MEOH      C1             19.3450986865       11.3328066951       13.5965635027  MEOH      3635            0.0000000000
     53746      4327  MEOH      DC1            19.3469496523       11.3337368784       13.5819295576  MEOH      3635            0.0000000000
     53747      4327  MEOH      O1             19.4804901268       12.0731159717       12.3797385140  MEOH      3635            0.0000000000
     53748      4327  MEOH      DO1            19.4784803760       12.0708223669       12.3670239370  MEOH      3635            0.0000000000
     53749      4327  MEOH      HO1            19.6259974748       12.9977793368       12.6341501369  MEOH      3635            0.0000000000
     53750      4327  MEOH      HO2            20.1368578341       11.5986780438       11.8458938873  MEOH      3635            0.0000000000
     53751      4327  MEOH      H1A            19.1111742775       10.2684620344       13.3802978889  MEOH      3635            0.0000000000
     53752      4327  MEOH      H1B            18.5100093962       11.7457407156       14.2019000807  MEOH      3635            0.0000000000
     53753      4327  MEOH      H1C            20.2895814771       11.3785983070       14.1798099227  MEOH      3635            0.0000000000
     53754      4327  MEOH      LP1A           19.8157132978       12.0779562202       12.2792298196  MEOH      3635            0.0000000000
     53755      4327  MEOH      LP1B           19.1664486000       12.1825022467       12.2705938290  MEOH      3635            0.0000000000
     53756      4328  MEOH      C1             33.7166005341       20.7695650572        1.6528643767  MEOH      3636            0.0000000000
     53757      4328  MEOH      DC1            33.7110688392       20.7727642363        1.6548068603  MEOH      3636            0.0000000000
     53758      4328  MEOH      O1             32.6461926970       19.9334689577        1.2140920876  MEOH      3636            0.0000000000
     53759      4328  MEOH      DO1            32.6470216507       19.9364321214        1.2097104736  MEOH      3636            0.0000000000
     53760      4328  MEOH      HO1            32.7136206636       19.8524875689        0.2498330540  MEOH      3636            0.0000000000
     53761      4328  MEOH      HO2            32.6867007833       19.1396548084        1.7700760729  MEOH      3636            0.0000000000
     53762      4328  MEOH      H1A            33.6370700164       20.9379870507        2.7481405654  MEOH      3636            0.0000000000
     53763      4328  MEOH      H1B            33.6466889043       21.7558383891        1.1462103737  MEOH      3636            0.0000000000
     53764      4328  MEOH      H1C            34.6964768226       20.2956395107        1.4302480316  MEOH      3636            0.0000000000
     53765      4328  MEOH      LP1A           32.7466706636       19.5982288891        1.2183669697  MEOH      3636            0.0000000000
     53766      4328  MEOH      LP1B           32.3626047045       20.1273410992        1.1470738567  MEOH      3636            0.0000000000
     53767      4329  MEOH      C1            -15.4748348857       -2.4399199727        0.6063790585  MEOH      3637            0.0000000000
     53768      4329  MEOH      DC1           -15.4834755117       -2.4401196964        0.5973847435  MEOH      3637            0.0000000000
     53769      4329  MEOH      O1            -14.3617952611       -2.2163150705       -0.2541570289  MEOH      3637            0.0000000000
     53770      4329  MEOH      DO1           -14.3556684106       -2.2287352752       -0.2647689241  MEOH      3637            0.0000000000
     53771      4329  MEOH      HO1           -14.0105317141       -1.3492849390        0.0023048040  MEOH      3637            0.0000000000
     53772      4329  MEOH      HO2           -13.8165568325       -3.0144891885       -0.1733292215  MEOH      3637            0.0000000000
     53773      4329  MEOH      H1A           -15.9943530124       -3.3856572461        0.3417983948  MEOH      3637            0.0000000000
     53774      4329  MEOH      H1B           -16.1837749100       -1.5892453056        0.5165032945  MEOH      3637            0.0000000000
     53775      4329  MEOH      H1C           -15.1280897724       -2.5102942148        1.6595344565  MEOH      3637            0.0000000000
     53776      4329  MEOH      LP1A          -14.0709850153       -2.3475883639       -0.1102934708  MEOH      3637            0.0000000000
     53777      4329  MEOH      LP1B          -14.4674056385       -2.0576074368       -0.5476844300  MEOH      3637            0.0000000000
     53778      4330  MEOH      C1              7.6571708367       26.9335442302       14.9250682778  MEOH      3638            0.0000000000
     53779      4330  MEOH      DC1             7.6631976543       26.9340941423       14.9248768301  MEOH      3638            0.0000000000
     53780      4330  MEOH      O1              6.9700838405       26.1578453755       13.9425794534  MEOH      3638            0.0000000000
     53781      4330  MEOH      DO1             6.9896050959       26.1467797828       13.9547560838  MEOH      3638            0.0000000000
     53782      4330  MEOH      HO1             6.0580921117       26.0219283622       14.2437399622  MEOH      3638            0.0000000000
     53783      4330  MEOH      HO2             7.1080226420       26.6341690579       13.1089196683  MEOH      3638            0.0000000000
     53784      4330  MEOH      H1A             8.6859160310       27.1696512229       14.5782861921  MEOH      3638            0.0000000000
     53785      4330  MEOH      H1B             7.7457302737       26.3680800669       15.8772912073  MEOH      3638            0.0000000000
     53786      4330  MEOH      H1C             7.1041517855       27.8805745204       15.1029012289  MEOH      3638            0.0000000000
     53787      4330  MEOH      LP1A            6.8254184845       26.3685157535       13.7034352989  MEOH      3638            0.0000000000
     53788      4330  MEOH      LP1B            7.0090907168       25.8167462888       14.0106226500  MEOH      3638            0.0000000000
     53789      4331  MEOH      C1             -3.0825600449       24.3327613453       25.2272151364  MEOH      3639            0.0000000000
     53790      4331  MEOH      DC1            -3.0875887137       24.3334582653       25.2393557639  MEOH      3639            0.0000000000
     53791      4331  MEOH      O1             -2.2141863733       23.2042518554       25.1270508753  MEOH      3639            0.0000000000
     53792      4331  MEOH      DO1            -2.2144111536       23.2104799323       25.1461034415  MEOH      3639            0.0000000000
     53793      4331  MEOH      HO1            -2.7224548716       22.3948390865       25.2926229238  MEOH      3639            0.0000000000
     53794      4331  MEOH      HO2            -1.7737187119       23.3014850913       24.2683111368  MEOH      3639            0.0000000000
     53795      4331  MEOH      H1A            -2.5125189458       25.2496580761       24.9651568787  MEOH      3639            0.0000000000
     53796      4331  MEOH      H1B            -3.4738586159       24.4326125786       26.2622205283  MEOH      3639            0.0000000000
     53797      4331  MEOH      H1C            -3.9234248116       24.2267273777       24.5088668626  MEOH      3639            0.0000000000
     53798      4331  MEOH      LP1A           -2.2043432905       23.0897506410       24.7964565837  MEOH      3639            0.0000000000
     53799      4331  MEOH      LP1B           -2.0695828982       23.1364614395       25.4384899456  MEOH      3639            0.0000000000
     53800      4332  MEOH      C1             29.3926446068      -15.4145523637      -35.7430096085  MEOH      3640            0.0000000000
     53801      4332  MEOH      DC1            29.3988386698      -15.4149016262      -35.7517980608  MEOH      3640            0.0000000000
     53802      4332  MEOH      O1             28.2365776997      -15.7630378451      -36.4970955369  MEOH      3640            0.0000000000
     53803      4332  MEOH      DO1            28.2463209359      -15.7630078387      -36.5127939946  MEOH      3640            0.0000000000
     53804      4332  MEOH      HO1            28.5052610664      -16.3643426455      -37.2092344177  MEOH      3640            0.0000000000
     53805      4332  MEOH      HO2            27.5886933007      -16.0878963914      -35.8524152041  MEOH      3640            0.0000000000
     53806      4332  MEOH      H1A            29.0796219683      -14.7659731573      -34.8970292060  MEOH      3640            0.0000000000
     53807      4332  MEOH      H1B            30.1168110890      -14.8490381311      -36.3675875131  MEOH      3640            0.0000000000
     53808      4332  MEOH      H1C            29.8770783856      -16.3328783948      -35.3476335650  MEOH      3640            0.0000000000
     53809      4332  MEOH      LP1A           28.0846221421      -16.0465333700      -36.3591107701  MEOH      3640            0.0000000000
     53810      4332  MEOH      LP1B           28.1876556911      -15.5315847777      -36.7550414900  MEOH      3640            0.0000000000
     53811      4333  MEOH      C1             36.2627179561       13.5618664924        3.3866727379  MEOH      3641            0.0000000000
     53812      4333  MEOH      DC1            36.2471065322       13.5666885689        3.3856735418  MEOH      3641            0.0000000000
     53813      4333  MEOH      O1             36.3308204950       14.6975306539        4.2530196731  MEOH      3641            0.0000000000
     53814      4333  MEOH      DO1            36.3149580315       14.7056825053        4.2510808207  MEOH      3641            0.0000000000
     53815      4333  MEOH      HO1            37.1070294101       15.2116545198        3.9808499270  MEOH      3641            0.0000000000
     53816      4333  MEOH      HO2            35.4403953171       15.0811687972        4.2824267990  MEOH      3641            0.0000000000
     53817      4333  MEOH      H1A            35.5480931115       12.8187737838        3.8007325860  MEOH      3641            0.0000000000
     53818      4333  MEOH      H1B            37.2632488232       13.0856755173        3.3060430815  MEOH      3641            0.0000000000
     53819      4333  MEOH      H1C            35.9274366128       13.8735268367        2.3743609030  MEOH      3641            0.0000000000
     53820      4333  MEOH      LP1A           36.1449601875       14.9619164353        4.1186466672  MEOH      3641            0.0000000000
     53821      4333  MEOH      LP1B           36.5186516683       14.6196760275        4.5379022936  MEOH      3641            0.0000000000
     53822      4334  MEOH      C1             -3.2515657119        9.0324144071      -28.9541697646  MEOH      3642            0.0000000000
     53823      4334  MEOH      DC1            -3.2452330907        9.0261028744      -28.9456400498  MEOH      3642            0.0000000000
     53824      4334  MEOH      O1             -2.6981326275        7.8266675270      -28.4261471018  MEOH      3642            0.0000000000
     53825      4334  MEOH      DO1            -2.6967807422        7.8201586297      -28.4150085329  MEOH      3642            0.0000000000
     53826      4334  MEOH      HO1            -2.7718994435        7.1636650884      -29.1303389956  MEOH      3642            0.0000000000
     53827      4334  MEOH      HO2            -1.8228696640        8.0710937855      -28.0869265986  MEOH      3642            0.0000000000
     53828      4334  MEOH      H1A            -3.2094042246        9.8348392566      -28.1869294047  MEOH      3642            0.0000000000
     53829      4334  MEOH      H1B            -4.3113149980        8.8817594398      -29.2517525817  MEOH      3642            0.0000000000
     53830      4334  MEOH      H1C            -2.6673282906        9.3420479836      -29.8469825583  MEOH      3642            0.0000000000
     53831      4334  MEOH      LP1A           -2.3541380033        7.8149914173      -28.4896401486  MEOH      3642            0.0000000000
     53832      4334  MEOH      LP1B           -2.9471312971        7.6415314957      -28.2642078772  MEOH      3642            0.0000000000
     53833      4335  MEOH      C1            -36.9316609180       25.0932526092      -16.0347117581  MEOH      3643            0.0000000000
     53834      4335  MEOH      DC1           -36.9364958984       25.0934270549      -16.0275223747  MEOH      3643            0.0000000000
     53835      4335  MEOH      O1            -35.5395299912       25.3588148540      -16.2244567113  MEOH      3643            0.0000000000
     53836      4335  MEOH      DO1           -35.5424176832       25.3587751072      -16.2124094098  MEOH      3643            0.0000000000
     53837      4335  MEOH      HO1           -35.1724053237       24.6243849998      -16.7409180063  MEOH      3643            0.0000000000
     53838      4335  MEOH      HO2           -35.4944457589       26.2560150891      -16.5903790391  MEOH      3643            0.0000000000
     53839      4335  MEOH      H1A           -37.3881912903       25.9189018310      -15.4480224161  MEOH      3643            0.0000000000
     53840      4335  MEOH      H1B           -37.0670070507       24.1373757029      -15.4848920010  MEOH      3643            0.0000000000
     53841      4335  MEOH      H1C           -37.4418979601       25.0259872747      -17.0193205817  MEOH      3643            0.0000000000
     53842      4335  MEOH      LP1A          -35.4922010474       25.5472381924      -16.5155866078  MEOH      3643            0.0000000000
     53843      4335  MEOH      LP1B          -35.3548218531       25.2246304570      -15.9591692231  MEOH      3643            0.0000000000
     53844      4336  MEOH      C1            -31.8904443857      -35.2486249137      -31.6330191771  MEOH      3644            0.0000000000
     53845      4336  MEOH      DC1           -31.8975233827      -35.2433274263      -31.6313294758  MEOH      3644            0.0000000000
     53846      4336  MEOH      O1            -32.3499507828      -35.2647478868      -32.9853781936  MEOH      3644            0.0000000000
     53847      4336  MEOH      DO1           -32.3614945705      -35.2663641315      -32.9847611396  MEOH      3644            0.0000000000
     53848      4336  MEOH      HO1           -33.0689134887      -35.9133335053      -33.0430784800  MEOH      3644            0.0000000000
     53849      4336  MEOH      HO2           -32.4892557720      -34.3381431862      -33.2361726317  MEOH      3644            0.0000000000
     53850      4336  MEOH      H1A           -30.9978489831      -34.5914401766      -31.5575031569  MEOH      3644            0.0000000000
     53851      4336  MEOH      H1B           -31.6061708016      -36.2746494313      -31.3155554492  MEOH      3644            0.0000000000
     53852      4336  MEOH      H1C           -32.6856806480      -34.8573545906      -30.9630730427  MEOH      3644            0.0000000000
     53853      4336  MEOH      LP1A          -32.6027452253      -35.0266028359      -33.0287591176  MEOH      3644            0.0000000000
     53854      4336  MEOH      LP1B          -32.1664197216      -35.4975836535      -33.1713993090  MEOH      3644            0.0000000000
     53855      4337  MEOH      C1            -23.8577803721        9.9479001038       21.5955365815  MEOH      3645            0.0000000000
     53856      4337  MEOH      DC1           -23.8618469723        9.9642639963       21.6045981679  MEOH      3645            0.0000000000
     53857      4337  MEOH      O1            -22.5383812154       10.2100658740       22.0690754013  MEOH      3645            0.0000000000
     53858      4337  MEOH      DO1           -22.5425843535       10.2220694723       22.0757472766  MEOH      3645            0.0000000000
     53859      4337  MEOH      HO1           -21.9237752463        9.8639402436       21.4032251540  MEOH      3645            0.0000000000
     53860      4337  MEOH      HO2           -22.5280755467       11.1433548220       22.3332070590  MEOH      3645            0.0000000000
     53861      4337  MEOH      H1A           -24.5951631838       10.1951918430       22.3889055912  MEOH      3645            0.0000000000
     53862      4337  MEOH      H1B           -23.9601454422        8.8657311152       21.3658570817  MEOH      3645            0.0000000000
     53863      4337  MEOH      H1C           -24.0691503412       10.5319328764       20.6743691383  MEOH      3645            0.0000000000
     53864      4337  MEOH      LP1A          -22.4324592656       10.5252954427       21.9599385168  MEOH      3645            0.0000000000
     53865      4337  MEOH      LP1B          -22.4271594032        9.9437784401       22.2671175965  MEOH      3645            0.0000000000
     53866      4338  MEOH      C1              6.6219312280      -12.2526430358       30.0667113933  MEOH      3646            0.0000000000
     53867      4338  MEOH      DC1             6.6226588589      -12.2557268542       30.0783031789  MEOH      3646            0.0000000000
     53868      4338  MEOH      O1              7.1019034174      -12.2353450335       31.4160036517  MEOH      3646            0.0000000000
     53869      4338  MEOH      DO1             7.1195175849      -12.2437525124       31.4178075465  MEOH      3646            0.0000000000
     53870      4338  MEOH      HO1             7.8151473896      -11.5790561981       31.4543181477  MEOH      3646            0.0000000000
     53871      4338  MEOH      HO2             6.3151297446      -12.1039267196       31.9679243123  MEOH      3646            0.0000000000
     53872      4338  MEOH      H1A             5.7775014481      -12.9692774861       29.9789935989  MEOH      3646            0.0000000000
     53873      4338  MEOH      H1B             7.4272300482      -12.5788339503       29.3743138927  MEOH      3646            0.0000000000
     53874      4338  MEOH      H1C             6.2718158349      -11.2410992347       29.7691893765  MEOH      3646            0.0000000000
     53875      4338  MEOH      LP1A            6.9192135814      -12.0043264815       31.6050931873  MEOH      3646            0.0000000000
     53876      4338  MEOH      LP1B            7.3571750430      -12.4715502872       31.4552907395  MEOH      3646            0.0000000000
     53877      4339  MEOH      C1            -23.9703222849      -14.0185999881       -4.4682427504  MEOH      3647            0.0000000000
     53878      4339  MEOH      DC1           -23.9646883711      -14.0223521085       -4.4580097627  MEOH      3647            0.0000000000
     53879      4339  MEOH      O1            -23.0134446625      -13.7029695052       -5.4796062413  MEOH      3647            0.0000000000
     53880      4339  MEOH      DO1           -23.0065386665      -13.7033000835       -5.4667508698  MEOH      3647            0.0000000000
     53881      4339  MEOH      HO1           -22.9081324246      -12.7414059121       -5.5517504720  MEOH      3647            0.0000000000
     53882      4339  MEOH      HO2           -22.2793418611      -14.3326864899       -5.4057848615  MEOH      3647            0.0000000000
     53883      4339  MEOH      H1A           -24.2761064135      -15.0818903516       -4.5693895229  MEOH      3647            0.0000000000
     53884      4339  MEOH      H1B           -24.8741260538      -13.3822532355       -4.5801469942  MEOH      3647            0.0000000000
     53885      4339  MEOH      H1C           -23.5196201915      -13.8539549820       -3.4662045047  MEOH      3647            0.0000000000
     53886      4339  MEOH      LP1A          -22.6922163987      -13.6915790940       -5.3411047573  MEOH      3647            0.0000000000
     53887      4339  MEOH      LP1B          -23.1727057629      -13.6726190721       -5.7897912717  MEOH      3647            0.0000000000
     53888      4340  MEOH      C1            -24.1878999653       27.8342459173      -27.2109562493  MEOH      3648            0.0000000000
     53889      4340  MEOH      DC1           -24.1745754990       27.8073010624      -27.2187616924  MEOH      3648            0.0000000000
     53890      4340  MEOH      O1            -24.6228764904       28.7720306800      -26.2282329996  MEOH      3648            0.0000000000
     53891      4340  MEOH      DO1           -24.6060887068       28.7651309688      -26.2388327962  MEOH      3648            0.0000000000
     53892      4340  MEOH      HO1           -25.5888421807       28.8405687026      -26.2840256923  MEOH      3648            0.0000000000
     53893      4340  MEOH      HO2           -24.1959793327       28.5057994242      -25.3989081318  MEOH      3648            0.0000000000
     53894      4340  MEOH      H1A           -23.0774755949       27.8413814639      -27.2459962806  MEOH      3648            0.0000000000
     53895      4340  MEOH      H1B           -24.5810690844       28.1061290316      -28.2138613381  MEOH      3648            0.0000000000
     53896      4340  MEOH      H1C           -24.5547629646       26.8188127050      -26.9489869170  MEOH      3648            0.0000000000
     53897      4340  MEOH      LP1A          -24.6838654605       28.6081131902      -25.9250640664  MEOH      3648            0.0000000000
     53898      4340  MEOH      LP1B          -24.6240171826       29.0949717823      -26.3631690706  MEOH      3648            0.0000000000
     53899      4341  MEOH      C1            -30.7605395434       -8.6192943650       13.7010006473  MEOH      3649            0.0000000000
     53900      4341  MEOH      DC1           -30.7653631708       -8.6213351704       13.6973544310  MEOH      3649            0.0000000000
     53901      4341  MEOH      O1            -31.6677054628       -9.6076917774       14.1911933140  MEOH      3649            0.0000000000
     53902      4341  MEOH      DO1           -31.6748308798       -9.6135106732       14.1909069753  MEOH      3649            0.0000000000
     53903      4341  MEOH      HO1           -32.3648455607       -9.6959521303       13.5225336142  MEOH      3649            0.0000000000
     53904      4341  MEOH      HO2           -31.1178845159      -10.3676240558       14.4383771729  MEOH      3649            0.0000000000
     53905      4341  MEOH      H1A           -29.9798700325       -8.4089351942       14.4629882685  MEOH      3649            0.0000000000
     53906      4341  MEOH      H1B           -31.3085059265       -7.6788987040       13.4780436026  MEOH      3649            0.0000000000
     53907      4341  MEOH      H1C           -30.2674817244       -8.9874438625       12.7759704119  MEOH      3649            0.0000000000
     53908      4341  MEOH      LP1A          -31.5662606406       -9.9258171053       14.0862875286  MEOH      3649            0.0000000000
     53909      4341  MEOH      LP1B          -31.9147544267       -9.4564917266       14.3876757664  MEOH      3649            0.0000000000
     53910      4342  MEOH      C1              6.4864861781       -1.8492875853      -20.9144972153  MEOH      3650            0.0000000000
     53911      4342  MEOH      DC1             6.4857343636       -1.8571684671      -20.9190229561  MEOH      3650            0.0000000000
     53912      4342  MEOH      O1              6.2361189561       -1.8528124083      -22.3187210048  MEOH      3650            0.0000000000
     53913      4342  MEOH      DO1             6.2364602479       -1.8500140422      -22.3257808688  MEOH      3650            0.0000000000
     53914      4342  MEOH      HO1             7.0964665808       -1.7448968124      -22.7535269265  MEOH      3650            0.0000000000
     53915      4342  MEOH      HO2             5.6854496290       -2.6321898031      -22.4926007585  MEOH      3650            0.0000000000
     53916      4342  MEOH      H1A             5.5299269931       -1.8428515417      -20.3494537631  MEOH      3650            0.0000000000
     53917      4342  MEOH      H1B             7.0600016687       -0.9443250566      -20.6204839421  MEOH      3650            0.0000000000
     53918      4342  MEOH      H1C             7.0616620482       -2.7579359691      -20.6354778011  MEOH      3650            0.0000000000
     53919      4342  MEOH      LP1A            6.2474541756       -2.1803687160      -22.4415150521  MEOH      3650            0.0000000000
     53920      4342  MEOH      LP1B            6.1715363229       -1.5271887572      -22.4296188015  MEOH      3650            0.0000000000
     53921      4343  MEOH      C1             23.1744061942        7.1829530965       19.1932821695  MEOH      3651            0.0000000000
     53922      4343  MEOH      DC1            23.1738080775        7.1939226265       19.1866199383  MEOH      3651            0.0000000000
     53923      4343  MEOH      O1             23.5821223091        7.1948775949       20.5620945702  MEOH      3651            0.0000000000
     53924      4343  MEOH      DO1            23.5789691594        7.2174985424       20.5582864565  MEOH      3651            0.0000000000
     53925      4343  MEOH      HO1            24.4518139089        7.6174656748       20.6392686365  MEOH      3651            0.0000000000
     53926      4343  MEOH      HO2            22.8146737163        7.4535169159       21.0959750428  MEOH      3651            0.0000000000
     53927      4343  MEOH      H1A            22.3631771673        6.4348531620       19.0645384144  MEOH      3651            0.0000000000
     53928      4343  MEOH      H1B            24.0195195165        6.8748667000       18.5412183345  MEOH      3651            0.0000000000
     53929      4343  MEOH      H1C            22.7943577627        8.1840488387       18.8971546519  MEOH      3651            0.0000000000
     53930      4343  MEOH      LP1A           23.4658842453        7.4852896682       20.7190962908  MEOH      3651            0.0000000000
     53931      4343  MEOH      LP1B           23.7569437294        6.9011888285       20.6374893939  MEOH      3651            0.0000000000
     53932      4344  MEOH      C1             12.8809535986       -9.8573759775       14.6045909095  MEOH      3652            0.0000000000
     53933      4344  MEOH      DC1            12.8896581713       -9.8499410158       14.5902896940  MEOH      3652            0.0000000000
     53934      4344  MEOH      O1             11.8468102657      -10.7082460923       15.0805598078  MEOH      3652            0.0000000000
     53935      4344  MEOH      DO1            11.8540268885      -10.7107214735       15.0522260046  MEOH      3652            0.0000000000
     53936      4344  MEOH      HO1            11.0442804220      -10.6159933293       14.5435912062  MEOH      3652            0.0000000000
     53937      4344  MEOH      HO2            12.2485030576      -11.5548600541       15.3311345486  MEOH      3652            0.0000000000
     53938      4344  MEOH      H1A            13.6610560444       -9.7509075064       15.3884439817  MEOH      3652            0.0000000000
     53939      4344  MEOH      H1B            12.4614678222       -8.8577218919       14.3616003856  MEOH      3652            0.0000000000
     53940      4344  MEOH      H1C            13.3412109921      -10.2977557584       13.6943438106  MEOH      3652            0.0000000000
     53941      4344  MEOH      LP1A           11.8687616062      -11.0214256404       14.9258448785  MEOH      3652            0.0000000000
     53942      4344  MEOH      LP1B           11.6576146137      -10.5422167214       15.3237454432  MEOH      3652            0.0000000000
     53943      4345  MEOH      C1             -0.8502527520        9.2469141493       16.3513421170  MEOH      3653            0.0000000000
     53944      4345  MEOH      DC1            -0.8710558424        9.2517250881       16.3350360749  MEOH      3653            0.0000000000
     53945      4345  MEOH      O1             -2.0415910014        9.9142360864       15.9203860817  MEOH      3653            0.0000000000
     53946      4345  MEOH      DO1            -2.0522023076        9.9178333834       15.9169136803  MEOH      3653            0.0000000000
     53947      4345  MEOH      HO1            -2.1896239671        9.6926145066       14.9877178039  MEOH      3653            0.0000000000
     53948      4345  MEOH      HO2            -2.7177862007        9.7314134843       16.5913823185  MEOH      3653            0.0000000000
     53949      4345  MEOH      H1A            -0.5787041765        9.5861535606       17.3738385692  MEOH      3653            0.0000000000
     53950      4345  MEOH      H1B            -0.0013189130        9.4831487070       15.6747140278  MEOH      3653            0.0000000000
     53951      4345  MEOH      H1C            -1.0065007865        8.1471333088       16.3710817878  MEOH      3653            0.0000000000
     53952      4345  MEOH      LP1A           -2.3205903139        9.7114749904       15.9799454772  MEOH      3653            0.0000000000
     53953      4345  MEOH      LP1B           -1.9630545480       10.2330762545       15.7992540353  MEOH      3653            0.0000000000
     53954      4346  MEOH      C1             17.9434761991       -0.4485920348       12.7220926488  MEOH      3654            0.0000000000
     53955      4346  MEOH      DC1            17.9352446386       -0.4533802605       12.7214016678  MEOH      3654            0.0000000000
     53956      4346  MEOH      O1             16.6514665934       -1.0327795310       12.9032434686  MEOH      3654            0.0000000000
     53957      4346  MEOH      DO1            16.6450305697       -1.0495825814       12.9098062053  MEOH      3654            0.0000000000
     53958      4346  MEOH      HO1            16.6101354497       -1.2957372132       13.8360054928  MEOH      3654            0.0000000000
     53959      4346  MEOH      HO2            16.0205071943       -0.3763604259       12.5687226231  MEOH      3654            0.0000000000
     53960      4346  MEOH      H1A            18.0534471813       -0.0888591100       11.6767125237  MEOH      3654            0.0000000000
     53961      4346  MEOH      H1B            18.7366107184       -1.1955141081       12.9397300811  MEOH      3654            0.0000000000
     53962      4346  MEOH      H1C            18.0636725555        0.4180413876       13.4067972185  MEOH      3654            0.0000000000
     53963      4346  MEOH      LP1A           16.4195394896       -0.7856543770       12.9906447090  MEOH      3654            0.0000000000
     53964      4346  MEOH      LP1B           16.6645869285       -1.3758356190       12.8351231538  MEOH      3654            0.0000000000
     53965      4347  MEOH      C1             32.9402981017       26.0975704412       26.6145884308  MEOH      3655            0.0000000000
     53966      4347  MEOH      DC1            32.9526555324       26.1006128944       26.5814928116  MEOH      3655            0.0000000000
     53967      4347  MEOH      O1             33.9999830881       27.0419262885       26.4335546623  MEOH      3655            0.0000000000
     53968      4347  MEOH      DO1            34.0151086075       27.0381622980       26.4079921496  MEOH      3655            0.0000000000
     53969      4347  MEOH      HO1            33.9838116185       27.5772854338       27.2422753004  MEOH      3655            0.0000000000
     53970      4347  MEOH      HO2            34.7897815430       26.5097812842       26.2493262848  MEOH      3655            0.0000000000
     53971      4347  MEOH      H1A            32.8469008045       25.4289081541       25.7322683694  MEOH      3655            0.0000000000
     53972      4347  MEOH      H1B            31.9796129894       26.6254618253       26.7955188116  MEOH      3655            0.0000000000
     53973      4347  MEOH      H1C            33.1558409232       25.4595181051       27.4981898731  MEOH      3655            0.0000000000
     53974      4347  MEOH      LP1A           34.3002041050       26.9098405520       26.5557049764  MEOH      3655            0.0000000000
     53975      4347  MEOH      LP1B           33.8794229697       27.3274062666       26.2708695678  MEOH      3655            0.0000000000
     53976      4348  MEOH      C1            -31.1132135436        9.6414978684       -2.3359026566  MEOH      3656            0.0000000000
     53977      4348  MEOH      DC1           -31.1040431424        9.6349251613       -2.3391443615  MEOH      3656            0.0000000000
     53978      4348  MEOH      O1            -31.3300023094        9.3998734283       -0.9546768748  MEOH      3656            0.0000000000
     53979      4348  MEOH      DO1           -31.2958645668        9.3844821954       -0.9580177825  MEOH      3656            0.0000000000
     53980      4348  MEOH      HO1           -31.5723079599       10.2537554757       -0.5634308887  MEOH      3656            0.0000000000
     53981      4348  MEOH      HO2           -32.0238408441        8.7221746583       -0.9401007019  MEOH      3656            0.0000000000
     53982      4348  MEOH      H1A           -31.0925189736        8.6722577484       -2.8785501707  MEOH      3656            0.0000000000
     53983      4348  MEOH      H1B           -30.1459037691       10.1658379147       -2.4898517321  MEOH      3656            0.0000000000
     53984      4348  MEOH      H1C           -31.9403647238       10.2638429741       -2.7394227862  MEOH      3656            0.0000000000
     53985      4348  MEOH      LP1A          -31.6642114514        9.3117322778       -0.8995825287  MEOH      3656            0.0000000000
     53986      4348  MEOH      LP1B          -31.0298988304        9.4361417653       -0.7782611451  MEOH      3656            0.0000000000
     53987      4349  MEOH      C1             -0.5336692813      -24.4863051946       24.6639762189  MEOH      3657            0.0000000000
     53988      4349  MEOH      DC1            -0.5585743825      -24.4917128556       24.6600840219  MEOH      3657            0.0000000000
     53989      4349  MEOH      O1             -1.8739365612      -24.0771323078       24.3728795839  MEOH      3657            0.0000000000
     53990      4349  MEOH      DO1            -1.8912093993      -24.0731509798       24.3817719554  MEOH      3657            0.0000000000
     53991      4349  MEOH      HO1            -1.8144435525      -23.5807486650       23.5416372235  MEOH      3657            0.0000000000
     53992      4349  MEOH      HO2            -2.4099152814      -24.8846477629       24.4121937197  MEOH      3657            0.0000000000
     53993      4349  MEOH      H1A            -0.4983469607      -25.0413135387       25.6257657344  MEOH      3657            0.0000000000
     53994      4349  MEOH      H1B             0.1308934153      -23.5998403549       24.7467863047  MEOH      3657            0.0000000000
     53995      4349  MEOH      H1C            -0.1508189670      -25.1424278130       23.8532668090  MEOH      3657            0.0000000000
     53996      4349  MEOH      LP1A           -2.0358949276      -24.3232877869       24.1839961075  MEOH      3657            0.0000000000
     53997      4349  MEOH      LP1B           -1.9398352169      -23.7677260270       24.5226297778  MEOH      3657            0.0000000000
     53998      4350  MEOH      C1              8.6344762296      -14.8796459999       -5.2163109004  MEOH      3658            0.0000000000
     53999      4350  MEOH      DC1             8.6337263874      -14.8836719085       -5.2115111688  MEOH      3658            0.0000000000
     54000      4350  MEOH      O1              8.6226111460      -15.5697760732       -6.4669049143  MEOH      3658            0.0000000000
     54001      4350  MEOH      DO1             8.6193701863      -15.5701762596       -6.4638973835  MEOH      3658            0.0000000000
     54002      4350  MEOH      HO1             8.6003559741      -16.5207351853       -6.2769536721  MEOH      3658            0.0000000000
     54003      4350  MEOH      HO2             7.9250837679      -15.1555984423       -6.9987060498  MEOH      3658            0.0000000000
     54004      4350  MEOH      H1A             8.8346603431      -13.8015782871       -5.3952447657  MEOH      3658            0.0000000000
     54005      4350  MEOH      H1B             9.4287030801      -15.2963566249       -4.5606608680  MEOH      3658            0.0000000000
     54006      4350  MEOH      H1C             7.6489750927      -14.9789848801       -4.7130810347  MEOH      3658            0.0000000000
     54007      4350  MEOH      LP1A            8.2929844260      -15.6150962986       -6.5754972835  MEOH      3658            0.0000000000
     54008      4350  MEOH      LP1B            8.9504952725      -15.6300785234       -6.5734676379  MEOH      3658            0.0000000000
     54009      4351  MEOH      C1             26.3725125251       -9.4672651676      -16.8972198458  MEOH      3659            0.0000000000
     54010      4351  MEOH      DC1            26.3471796982       -9.4787891939      -16.8825348682  MEOH      3659            0.0000000000
     54011      4351  MEOH      O1             26.9101746268       -8.3109233660      -17.5348945907  MEOH      3659            0.0000000000
     54012      4351  MEOH      DO1            26.8898844024       -8.3289003742      -17.5181812486  MEOH      3659            0.0000000000
     54013      4351  MEOH      HO1            26.8850223776       -7.5376545903      -16.9498110356  MEOH      3659            0.0000000000
     54014      4351  MEOH      HO2            27.7635309346       -8.5894772080      -17.9024415523  MEOH      3659            0.0000000000
     54015      4351  MEOH      H1A            26.4454549031      -10.3196271816      -17.6060776653  MEOH      3659            0.0000000000
     54016      4351  MEOH      H1B            25.3062549400       -9.3169930111      -16.6236617321  MEOH      3659            0.0000000000
     54017      4351  MEOH      H1C            26.9653840400       -9.7021716575      -15.9874708102  MEOH      3659            0.0000000000
     54018      4351  MEOH      LP1A           27.2553038509       -8.2932293980      -17.4794622699  MEOH      3659            0.0000000000
     54019      4351  MEOH      LP1B           26.6573567223       -8.1406110622      -17.7068737357  MEOH      3659            0.0000000000
     54020      4352  MEOH      C1             11.8568846454        4.9384161538      -24.6693202654  MEOH      3660            0.0000000000
     54021      4352  MEOH      DC1            11.8173339447        4.9487060681      -24.6919983430  MEOH      3660            0.0000000000
     54022      4352  MEOH      O1             10.7784629426        5.2165880168      -25.5458184448  MEOH      3660            0.0000000000
     54023      4352  MEOH      DO1            10.7492501259        5.2216443548      -25.5562870711  MEOH      3660            0.0000000000
     54024      4352  MEOH      HO1            10.4659707467        6.0931166327      -25.2720553849  MEOH      3660            0.0000000000
     54025      4352  MEOH      HO2            11.1639415462        5.1149537615      -26.4301129234  MEOH      3660            0.0000000000
     54026      4352  MEOH      H1A            12.3433947826        3.9767630208      -24.9392316203  MEOH      3660            0.0000000000
     54027      4352  MEOH      H1B            11.4929568552        4.8605784753      -23.6225065953  MEOH      3660            0.0000000000
     54028      4352  MEOH      H1C            12.6285450423        5.7353196939      -24.7310128885  MEOH      3660            0.0000000000
     54029      4352  MEOH      LP1A           10.8966673440        5.3755440085      -25.8343677684  MEOH      3660            0.0000000000
     54030      4352  MEOH      LP1B           10.4796651355        5.0944915441      -25.4104954172  MEOH      3660            0.0000000000
     54031      4353  MEOH      C1             18.0016470890       29.8443313258       22.9253946165  MEOH      3661            0.0000000000
     54032      4353  MEOH      DC1            17.9971170922       29.8339408263       22.9258455277  MEOH      3661            0.0000000000
     54033      4353  MEOH      O1             17.0078001329       28.8398457644       22.7110501283  MEOH      3661            0.0000000000
     54034      4353  MEOH      DO1            17.0069557155       28.8356147164       22.7132349024  MEOH      3661            0.0000000000
     54035      4353  MEOH      HO1            16.9874118982       28.2685386701       23.4946906866  MEOH      3661            0.0000000000
     54036      4353  MEOH      HO2            16.2097871015       29.3099714291       22.4228539087  MEOH      3661            0.0000000000
     54037      4353  MEOH      H1A            18.1315105395       30.4472813904       22.0013233507  MEOH      3661            0.0000000000
     54038      4353  MEOH      H1B            18.9713761560       29.3680588507       23.1844526527  MEOH      3661            0.0000000000
     54039      4353  MEOH      H1C            17.6960977877       30.5252012058       23.7484236756  MEOH      3661            0.0000000000
     54040      4353  MEOH      LP1A           16.6966558642       28.9531889715       22.8243751538  MEOH      3661            0.0000000000
     54041      4353  MEOH      LP1B           17.1501359268       28.5627362434       22.5515169495  MEOH      3661            0.0000000000
     54042      4354  MEOH      C1             14.5500435766       17.7699689291       24.0826909316  MEOH      3662            0.0000000000
     54043      4354  MEOH      DC1            14.5600539110       17.7759397653       24.0831633893  MEOH      3662            0.0000000000
     54044      4354  MEOH      O1             15.3811384595       16.7213445335       24.5800360781  MEOH      3662            0.0000000000
     54045      4354  MEOH      DO1            15.3980179063       16.7340885175       24.5799832621  MEOH      3662            0.0000000000
     54046      4354  MEOH      HO1            15.4044495660       16.0015919693       23.9301800638  MEOH      3662            0.0000000000
     54047      4354  MEOH      HO2            16.1798816546       17.1266808197       24.9523421396  MEOH      3662            0.0000000000
     54048      4354  MEOH      H1A            14.2850755884       18.4508026144       24.9196965821  MEOH      3662            0.0000000000
     54049      4354  MEOH      H1B            13.6125554212       17.3428135223       23.6667880379  MEOH      3662            0.0000000000
     54050      4354  MEOH      H1C            15.0861352592       18.3392531035       23.2934873847  MEOH      3662            0.0000000000
     54051      4354  MEOH      LP1A           15.7129241592       16.7750344458       24.4823854623  MEOH      3662            0.0000000000
     54052      4354  MEOH      LP1B           15.1907531701       16.4978854908       24.7706128286  MEOH      3662            0.0000000000
     54053      4355  MEOH      C1            -14.0208946776      -36.3855080289        9.9379423993  MEOH      3663            0.0000000000
     54054      4355  MEOH      DC1           -14.0314818159      -36.3846610153        9.9311390962  MEOH      3663            0.0000000000
     54055      4355  MEOH      O1            -14.8969237083      -36.5344220544        8.8179298159  MEOH      3663            0.0000000000
     54056      4355  MEOH      DO1           -14.9055064698      -36.5312677318        8.8179107352  MEOH      3663            0.0000000000
     54057      4355  MEOH      HO1           -14.9903563175      -37.4832965045        8.6395828893  MEOH      3663            0.0000000000
     54058      4355  MEOH      HO2           -15.6724820652      -35.9830027448        9.0059350822  MEOH      3663            0.0000000000
     54059      4355  MEOH      H1A           -13.7486128201      -35.3153918199       10.0605592389  MEOH      3663            0.0000000000
     54060      4355  MEOH      H1B           -13.0769047451      -36.9476406861        9.7729851785  MEOH      3663            0.0000000000
     54061      4355  MEOH      H1C           -14.5088335208      -36.7519355108       10.8663644943  MEOH      3663            0.0000000000
     54062      4355  MEOH      LP1A          -15.2288111140      -36.5540314356        8.9273200444  MEOH      3663            0.0000000000
     54063      4355  MEOH      LP1B          -14.7128256757      -36.5283408495        8.5203211243  MEOH      3663            0.0000000000
     54064      4356  MEOH      C1             31.5570778655      -29.3202035711      -11.8634617759  MEOH      3664            0.0000000000
     54065      4356  MEOH      DC1            31.5534096546      -29.3109358981      -11.8597956155  MEOH      3664            0.0000000000
     54066      4356  MEOH      O1             30.7549827183      -28.4477322685      -12.6631313352  MEOH      3664            0.0000000000
     54067      4356  MEOH      DO1            30.7500118748      -28.4420242178      -12.6570614669  MEOH      3664            0.0000000000
     54068      4356  MEOH      HO1            30.0388015107      -28.9750582821      -13.0503157271  MEOH      3664            0.0000000000
     54069      4356  MEOH      HO2            30.5751050646      -27.6640579025      -12.1205463020  MEOH      3664            0.0000000000
     54070      4356  MEOH      H1A            32.4951549162      -28.8003837122      -11.5734277046  MEOH      3664            0.0000000000
     54071      4356  MEOH      H1B            31.8203916336      -30.2330946322      -12.4393235393  MEOH      3664            0.0000000000
     54072      4356  MEOH      H1C            31.0061225156      -29.6157793404      -10.9450913893  MEOH      3664            0.0000000000
     54073      4356  MEOH      LP1A           30.5020916903      -28.3049914995      -12.4677568210  MEOH      3664            0.0000000000
     54074      4356  MEOH      LP1B           30.8803907358      -28.4355665418      -12.9896659034  MEOH      3664            0.0000000000
     54075      4357  MEOH      C1             17.7622072911      -17.1260572407       35.5436139351  MEOH      3665            0.0000000000
     54076      4357  MEOH      DC1            17.7631640213      -17.1469449539       35.5486954901  MEOH      3665            0.0000000000
     54077      4357  MEOH      O1             17.9708418650      -18.4953575880       35.9074855472  MEOH      3665            0.0000000000
     54078      4357  MEOH      DO1            17.9759385522      -18.5087580722       35.9127482238  MEOH      3665            0.0000000000
     54079      4357  MEOH      HO1            18.8509632939      -18.7328098823       35.5759698185  MEOH      3665            0.0000000000
     54080      4357  MEOH      HO2            17.7911240340      -18.5454779783       36.8593728558  MEOH      3665            0.0000000000
     54081      4357  MEOH      H1A            16.7478142870      -16.8028089806       35.8611645549  MEOH      3665            0.0000000000
     54082      4357  MEOH      H1B            17.8508273751      -17.0013495253       34.4431978927  MEOH      3665            0.0000000000
     54083      4357  MEOH      H1C            18.5103395223      -16.4648659815       36.0308975127  MEOH      3665            0.0000000000
     54084      4357  MEOH      LP1A           18.1163193399      -18.5139407746       36.2252763109  MEOH      3665            0.0000000000
     54085      4357  MEOH      LP1B           17.8498816449      -18.7059569689       35.6554606954  MEOH      3665            0.0000000000
     54086      4358  MEOH      C1              9.7001934942      -28.9476467456        9.6515259666  MEOH      3666            0.0000000000
     54087      4358  MEOH      DC1             9.7077981604      -28.9463747264        9.6507612919  MEOH      3666            0.0000000000
     54088      4358  MEOH      O1              9.2456615129      -27.6010209062        9.7700884820  MEOH      3666            0.0000000000
     54089      4358  MEOH      DO1             9.2497763806      -27.6006309363        9.7676581394  MEOH      3666            0.0000000000
     54090      4358  MEOH      HO1             8.9356984346      -27.4741280292       10.6804296758  MEOH      3666            0.0000000000
     54091      4358  MEOH      HO2             9.9522649452      -27.0457436772        9.4050148066  MEOH      3666            0.0000000000
     54092      4358  MEOH      H1A             9.9304570875      -29.1954272366        8.5932705589  MEOH      3666            0.0000000000
     54093      4358  MEOH      H1B             8.9041675238      -29.6408721020        9.9980836968  MEOH      3666            0.0000000000
     54094      4358  MEOH      H1C            10.6296849245      -29.0784574770       10.2458787520  MEOH      3666            0.0000000000
     54095      4358  MEOH      LP1A            9.5109102089      -27.3930020475        9.8642759742  MEOH      3666            0.0000000000
     54096      4358  MEOH      LP1B            8.9067964027      -27.5811092613        9.6848009481  MEOH      3666            0.0000000000
     54097      4359  MEOH      C1            -11.2919935186      -23.7411337618      -27.3596987213  MEOH      3667            0.0000000000
     54098      4359  MEOH      DC1           -11.2919627225      -23.7440705484      -27.3571064907  MEOH      3667            0.0000000000
     54099      4359  MEOH      O1            -12.6650939391      -23.4785142389      -27.6498585832  MEOH      3667            0.0000000000
     54100      4359  MEOH      DO1           -12.6662124714      -23.4839072562      -27.6448706030  MEOH      3667            0.0000000000
     54101      4359  MEOH      HO1           -12.6951805309      -23.0400012635      -28.5145557371  MEOH      3667            0.0000000000
     54102      4359  MEOH      HO2           -13.1429583776      -24.3072107655      -27.4892110021  MEOH      3667            0.0000000000
     54103      4359  MEOH      H1A           -11.1992110764      -24.0625400064      -26.3002599811  MEOH      3667            0.0000000000
     54104      4359  MEOH      H1B           -10.6885920436      -22.8162507428      -27.4814322936  MEOH      3667            0.0000000000
     54105      4359  MEOH      H1C           -10.9017771595      -24.5456563514      -28.0190890431  MEOH      3667            0.0000000000
     54106      4359  MEOH      LP1A          -12.8065339785      -23.7516822002      -27.8168136076  MEOH      3667            0.0000000000
     54107      4359  MEOH      LP1B          -12.7569237441      -23.1660897831      -27.5215688862  MEOH      3667            0.0000000000
     54108      4360  MEOH      C1            -35.3929200816      -34.6261051303      -24.7310445744  MEOH      3668            0.0000000000
     54109      4360  MEOH      DC1           -35.4042064050      -34.6278009308      -24.7245390198  MEOH      3668            0.0000000000
     54110      4360  MEOH      O1            -35.2335460985      -34.4119345838      -26.1317819123  MEOH      3668            0.0000000000
     54111      4360  MEOH      DO1           -35.2442319865      -34.4106447533      -26.1278513605  MEOH      3668            0.0000000000
     54112      4360  MEOH      HO1           -34.3877057849      -34.8122928009      -26.3870610998  MEOH      3668            0.0000000000
     54113      4360  MEOH      HO2           -36.0641574760      -34.6945052207      -26.5454708954  MEOH      3668            0.0000000000
     54114      4360  MEOH      H1A           -36.1244739813      -33.8907525658      -24.3330414359  MEOH      3668            0.0000000000
     54115      4360  MEOH      H1B           -34.4318340046      -34.4779971301      -24.1937377971  MEOH      3668            0.0000000000
     54116      4360  MEOH      H1C           -35.7504495511      -35.6636765974      -24.5580152984  MEOH      3668            0.0000000000
     54117      4360  MEOH      LP1A          -35.3782964436      -34.6757953962      -26.3104570625  MEOH      3668            0.0000000000
     54118      4360  MEOH      LP1B          -35.0721158738      -34.1066273354      -26.1885953495  MEOH      3668            0.0000000000
     54119      4361  MEOH      C1             36.3307397721       25.9266043685       28.2501666351  MEOH      3669            0.0000000000
     54120      4361  MEOH      DC1            36.3757986581       25.9367809037       28.2484283057  MEOH      3669            0.0000000000
     54121      4361  MEOH      O1             35.0973704777       26.0228600580       28.9605800930  MEOH      3669            0.0000000000
     54122      4361  MEOH      DO1            35.1293942268       26.0338534112       28.9402229431  MEOH      3669            0.0000000000
     54123      4361  MEOH      HO1            34.7539423063       25.1545839469       29.2233607747  MEOH      3669            0.0000000000
     54124      4361  MEOH      HO2            35.1812032109       26.7524837683       29.5942371880  MEOH      3669            0.0000000000
     54125      4361  MEOH      H1A            36.5562023166       26.9303724778       27.8307179182  MEOH      3669            0.0000000000
     54126      4361  MEOH      H1B            36.2509476292       25.2162940438       27.3996294770  MEOH      3669            0.0000000000
     54127      4361  MEOH      H1C            37.1308863927       25.5982811593       28.9475117834  MEOH      3669            0.0000000000
     54128      4361  MEOH      LP1A           35.1590461525       26.0572443195       29.3033830009  MEOH      3669            0.0000000000
     54129      4361  MEOH      LP1B           34.8290174295       26.0160608935       28.7359906611  MEOH      3669            0.0000000000
     54130      4362  MEOH      C1             22.5949949279      -31.0318958023        6.9111043826  MEOH      3670            0.0000000000
     54131      4362  MEOH      DC1            22.5906891736      -31.0430350621        6.9039009034  MEOH      3670            0.0000000000
     54132      4362  MEOH      O1             21.7220747362      -30.0547352567        7.4841371682  MEOH      3670            0.0000000000
     54133      4362  MEOH      DO1            21.7138010576      -30.0599262941        7.4654132575  MEOH      3670            0.0000000000
     54134      4362  MEOH      HO1            21.2033719412      -30.4943338518        8.1759467415  MEOH      3670            0.0000000000
     54135      4362  MEOH      HO2            22.3053978076      -29.3281631172        7.7538168327  MEOH      3670            0.0000000000
     54136      4362  MEOH      H1A            23.2647200858      -30.5418865369        6.1724027288  MEOH      3670            0.0000000000
     54137      4362  MEOH      H1B            22.0021812654      -31.8172215860        6.3952009275  MEOH      3670            0.0000000000
     54138      4362  MEOH      H1C            23.2163650430      -31.4951811807        7.7070860657  MEOH      3670            0.0000000000
     54139      4362  MEOH      LP1A           21.8818948978      -29.8926988256        7.7500351016  MEOH      3670            0.0000000000
     54140      4362  MEOH      LP1B           21.4203354040      -30.0452370009        7.3070407013  MEOH      3670            0.0000000000
     54141      4363  MEOH      C1            -20.4543486723      -15.9384258043       29.7253922422  MEOH      3671            0.0000000000
     54142      4363  MEOH      DC1           -20.4661878930      -15.9342858559       29.7215729702  MEOH      3671            0.0000000000
     54143      4363  MEOH      O1            -19.2460801046      -16.5361677921       30.2074462186  MEOH      3671            0.0000000000
     54144      4363  MEOH      DO1           -19.2483324498      -16.5295075922       30.2012437902  MEOH      3671            0.0000000000
     54145      4363  MEOH      HO1           -19.1644858456      -16.3489660258       31.1557066661  MEOH      3671            0.0000000000
     54146      4363  MEOH      HO2           -19.2683307089      -17.4580619342       29.9065872792  MEOH      3671            0.0000000000
     54147      4363  MEOH      H1A           -20.5445963039      -16.1389997789       28.6363805584  MEOH      3671            0.0000000000
     54148      4363  MEOH      H1B           -20.4283357025      -14.8396552800       29.8877118681  MEOH      3671            0.0000000000
     54149      4363  MEOH      H1C           -21.3392001710      -16.3757181266       30.2354258196  MEOH      3671            0.0000000000
     54150      4363  MEOH      LP1A          -19.3081283617      -16.8646271321       30.3111982103  MEOH      3671            0.0000000000
     54151      4363  MEOH      LP1B          -18.9797232346      -16.3116241815       30.1737685596  MEOH      3671            0.0000000000
     54152      4364  MEOH      C1             10.1571049631      -30.9949257523       12.0775002133  MEOH      3672            0.0000000000
     54153      4364  MEOH      DC1            10.1571811617      -30.9957289367       12.0898659013  MEOH      3672            0.0000000000
     54154      4364  MEOH      O1             10.2614716731      -31.7114228910       13.3033562344  MEOH      3672            0.0000000000
     54155      4364  MEOH      DO1            10.2631981327      -31.6900112225       13.3172367252  MEOH      3672            0.0000000000
     54156      4364  MEOH      HO1            11.1628758089      -31.6124379483       13.6476999090  MEOH      3672            0.0000000000
     54157      4364  MEOH      HO2             9.4554654799      -31.5249148802       13.8097837004  MEOH      3672            0.0000000000
     54158      4364  MEOH      H1A             9.2947217909      -31.3755185802       11.4894820467  MEOH      3672            0.0000000000
     54159      4364  MEOH      H1B            11.0771888670      -31.1217593822       11.4678447038  MEOH      3672            0.0000000000
     54160      4364  MEOH      H1C             9.9890314044      -29.9161360685       12.2831336208  MEOH      3672            0.0000000000
     54161      4364  MEOH      LP1A           10.1721686274      -31.5043472097       13.5710213764  MEOH      3672            0.0000000000
     54162      4364  MEOH      LP1B           10.3573417793      -32.0421906825       13.2408935188  MEOH      3672            0.0000000000
     54163      4365  MEOH      C1              0.1738570609       13.1390648314       -3.9228243166  MEOH      3673            0.0000000000
     54164      4365  MEOH      DC1             0.1973149427       13.1407717387       -3.9184246067  MEOH      3673            0.0000000000
     54165      4365  MEOH      O1              0.6810803897       13.0990890438       -5.2582777730  MEOH      3673            0.0000000000
     54166      4365  MEOH      DO1             0.6941479600       13.1017762975       -5.2526294657  MEOH      3673            0.0000000000
     54167      4365  MEOH      HO1            -0.0611315469       12.8469421644       -5.8296300219  MEOH      3673            0.0000000000
     54168      4365  MEOH      HO2             1.1476377798       13.9382227472       -5.3964039134  MEOH      3673            0.0000000000
     54169      4365  MEOH      H1A             0.9998096452       13.3549864266       -3.2118382445  MEOH      3673            0.0000000000
     54170      4365  MEOH      H1B            -0.2799069547       12.1626680496       -3.6488379244  MEOH      3673            0.0000000000
     54171      4365  MEOH      H1C            -0.5996441968       13.9320507353       -3.8380295023  MEOH      3673            0.0000000000
     54172      4365  MEOH      LP1A            0.6510490936       13.4143879788       -5.4072230745  MEOH      3673            0.0000000000
     54173      4365  MEOH      LP1B            0.8064700855       12.7801114845       -5.3292054882  MEOH      3673            0.0000000000
     54174      4366  MEOH      C1            -19.2093376427       -8.6537305969       22.2011808449  MEOH      3674            0.0000000000
     54175      4366  MEOH      DC1           -19.2203012247       -8.6722819480       22.1981349246  MEOH      3674            0.0000000000
     54176      4366  MEOH      O1            -18.3629363911       -7.5111951763       22.1082252632  MEOH      3674            0.0000000000
     54177      4366  MEOH      DO1           -18.3652246455       -7.5332917613       22.1150408420  MEOH      3674            0.0000000000
     54178      4366  MEOH      HO1           -17.8505265633       -7.5597154871       21.2860440497  MEOH      3674            0.0000000000
     54179      4366  MEOH      HO2           -18.9352011099       -6.7422733446       22.2571289540  MEOH      3674            0.0000000000
     54180      4366  MEOH      H1A           -19.7689461968       -8.6106933601       23.1599858628  MEOH      3674            0.0000000000
     54181      4366  MEOH      H1B           -18.6059227759       -9.5864132182       22.1834430862  MEOH      3674            0.0000000000
     54182      4366  MEOH      H1C           -19.9337125641       -8.6342964888       21.3590262930  MEOH      3674            0.0000000000
     54183      4366  MEOH      LP1A          -18.5316538714       -7.2499820397       21.9475949139  MEOH      3674            0.0000000000
     54184      4366  MEOH      LP1B          -18.0560543805       -7.5766268509       22.2632805034  MEOH      3674            0.0000000000
     54185      4367  MEOH      C1             29.4844376560       17.4494456284       -0.0384343775  MEOH      3675            0.0000000000
     54186      4367  MEOH      DC1            29.4783038271       17.4499186386       -0.0417843695  MEOH      3675            0.0000000000
     54187      4367  MEOH      O1             30.3097749209       17.2062652043        1.1026359568  MEOH      3675            0.0000000000
     54188      4367  MEOH      DO1            30.3055883924       17.2002150462        1.1009191070  MEOH      3675            0.0000000000
     54189      4367  MEOH      HO1            31.1868324341       16.9456587309        0.7805266815  MEOH      3675            0.0000000000
     54190      4367  MEOH      HO2            30.2214293229       17.9955405063        1.6595377012  MEOH      3675            0.0000000000
     54191      4367  MEOH      H1A            28.4586760577       17.7041300673        0.3040126704  MEOH      3675            0.0000000000
     54192      4367  MEOH      H1B            29.4376338905       16.5436107733       -0.6799900047  MEOH      3675            0.0000000000
     54193      4367  MEOH      H1C            29.8894151346       18.3009558062       -0.6260096154  MEOH      3675            0.0000000000
     54194      4367  MEOH      LP1A           30.4680275806       17.5024692415        1.2012222849  MEOH      3675            0.0000000000
     54195      4367  MEOH      LP1B           30.2810031307       16.8719376027        1.2021208243  MEOH      3675            0.0000000000
     54196      4368  MEOH      C1             10.1739469361      -33.8963769915       -0.1829771722  MEOH      3676            0.0000000000
     54197      4368  MEOH      DC1            10.1924084146      -33.8873284594       -0.2071220345  MEOH      3676            0.0000000000
     54198      4368  MEOH      O1             11.0029572383      -33.0768803839       -1.0153295585  MEOH      3676            0.0000000000
     54199      4368  MEOH      DO1            11.0289274826      -33.0796355681       -1.0446233689  MEOH      3676            0.0000000000
     54200      4368  MEOH      HO1            11.7875664983      -32.8857311035       -0.4779746828  MEOH      3676            0.0000000000
     54201      4368  MEOH      HO2            11.0412722856      -33.5015298948       -1.8865957348  MEOH      3676            0.0000000000
     54202      4368  MEOH      H1A             9.1430109869      -33.9392065011       -0.5948724284  MEOH      3676            0.0000000000
     54203      4368  MEOH      H1B            10.1171377426      -33.4901438112        0.8495286722  MEOH      3676            0.0000000000
     54204      4368  MEOH      H1C            10.5855998375      -34.9266269866       -0.1242588793  MEOH      3676            0.0000000000
     54205      4368  MEOH      LP1A           11.2152184447      -33.2778724215       -1.2078065210  MEOH      3676            0.0000000000
     54206      4368  MEOH      LP1B           10.9214303841      -32.7394929443       -0.9703508117  MEOH      3676            0.0000000000
     54207      4369  MEOH      C1              0.8670319962       -5.5383111928        4.2724188011  MEOH      3677            0.0000000000
     54208      4369  MEOH      DC1             0.8765790069       -5.5355921767        4.2737355948  MEOH      3677            0.0000000000
     54209      4369  MEOH      O1              1.5956038104       -4.8748410171        5.2970913804  MEOH      3677            0.0000000000
     54210      4369  MEOH      DO1             1.6091925682       -4.8673320364        5.2878120621  MEOH      3677            0.0000000000
     54211      4369  MEOH      HO1             2.3452643405       -5.4390812290        5.5431443684  MEOH      3677            0.0000000000
     54212      4369  MEOH      HO2             1.7137664300       -3.9592068179        4.9995151548  MEOH      3677            0.0000000000
     54213      4369  MEOH      H1A            -0.1133301520       -5.0372490721        4.1235973995  MEOH      3677            0.0000000000
     54214      4369  MEOH      H1B             0.6847318267       -6.5870632691        4.5905488564  MEOH      3677            0.0000000000
     54215      4369  MEOH      H1C             1.4392990833       -5.5382070645        3.3201418609  MEOH      3677            0.0000000000
     54216      4369  MEOH      LP1A            1.8390465076       -4.6670176288        5.1555106878  MEOH      3677            0.0000000000
     54217      4369  MEOH      LP1B            1.4674377201       -4.9621800340        5.6108513992  MEOH      3677            0.0000000000
     54218      4370  MEOH      C1            -20.0462636522       31.8192052865       25.2800820384  MEOH      3678            0.0000000000
     54219      4370  MEOH      DC1           -20.0468144310       31.8134917517       25.2814758035  MEOH      3678            0.0000000000
     54220      4370  MEOH      O1            -21.2398589115       31.1109766965       25.6218183390  MEOH      3678            0.0000000000
     54221      4370  MEOH      DO1           -21.2372630714       31.1063521015       25.6229816034  MEOH      3678            0.0000000000
     54222      4370  MEOH      HO1           -21.7888347770       31.0542604151       24.8241286985  MEOH      3678            0.0000000000
     54223      4370  MEOH      HO2           -20.9582561439       30.3075907136       26.0867601048  MEOH      3678            0.0000000000
     54224      4370  MEOH      H1A           -19.4676162457       32.0303518671       26.2046929298  MEOH      3678            0.0000000000
     54225      4370  MEOH      H1B           -20.2987295481       32.7822542620       24.7870114111  MEOH      3678            0.0000000000
     54226      4370  MEOH      H1C           -19.4110122920       31.2202631328       24.5930267230  MEOH      3678            0.0000000000
     54227      4370  MEOH      LP1A          -21.1924224851       30.7672644145       25.5758656165  MEOH      3678            0.0000000000
     54228      4370  MEOH      LP1B          -21.4834685294       31.3349450312       25.7358031586  MEOH      3678            0.0000000000
     54229      4371  MEOH      C1             12.2983850841      -24.3556265980        6.1932511390  MEOH      3679            0.0000000000
     54230      4371  MEOH      DC1            12.3050039935      -24.3571218550        6.1784507275  MEOH      3679            0.0000000000
     54231      4371  MEOH      O1             13.1613054884      -25.3266795557        5.6055323053  MEOH      3679            0.0000000000
     54232      4371  MEOH      DO1            13.1649821146      -25.3283116763        5.5927038144  MEOH      3679            0.0000000000
     54233      4371  MEOH      HO1            13.8332739608      -25.5462300186        6.2697280348  MEOH      3679            0.0000000000
     54234      4371  MEOH      HO2            12.5892937569      -26.0092265171        5.2210427416  MEOH      3679            0.0000000000
     54235      4371  MEOH      H1A            11.5674270680      -24.0000876104        5.4358784383  MEOH      3679            0.0000000000
     54236      4371  MEOH      H1B            12.8953638267      -23.4953732472        6.5646021229  MEOH      3679            0.0000000000
     54237      4371  MEOH      H1C            11.7425265904      -24.8091527832        7.0415767463  MEOH      3679            0.0000000000
     54238      4371  MEOH      LP1A           13.0382882747      -25.6486362096        5.6664476410  MEOH      3679            0.0000000000
     54239      4371  MEOH      LP1B           13.4230191734      -25.1674379599        5.4362749237  MEOH      3679            0.0000000000
     54240      4372  MEOH      C1            -21.7219456037       32.7156106811        9.0129340388  MEOH      3680            0.0000000000
     54241      4372  MEOH      DC1           -21.7337526831       32.7377596438        9.0068790300  MEOH      3680            0.0000000000
     54242      4372  MEOH      O1            -20.4993770363       32.0348840312        9.2808683189  MEOH      3680            0.0000000000
     54243      4372  MEOH      DO1           -20.5066310930       32.0417103558        9.2841389773  MEOH      3680            0.0000000000
     54244      4372  MEOH      HO1           -19.8198690384       32.3880482831        8.6855164120  MEOH      3680            0.0000000000
     54245      4372  MEOH      HO2           -20.3852321277       32.0758460814       10.2432575594  MEOH      3680            0.0000000000
     54246      4372  MEOH      H1A           -22.5509734372       32.2269374371        9.5681207753  MEOH      3680            0.0000000000
     54247      4372  MEOH      H1B           -21.9466457748       32.6703407492        7.9258363126  MEOH      3680            0.0000000000
     54248      4372  MEOH      H1C           -21.6342017542       33.7698388430        9.3523821211  MEOH      3680            0.0000000000
     54249      4372  MEOH      LP1A          -20.3214766190       32.2024599250        9.5314072607  MEOH      3680            0.0000000000
     54250      4372  MEOH      LP1B          -20.4770664174       31.7467190445        9.0834773953  MEOH      3680            0.0000000000
     54251      4373  MEOH      C1             -0.1930636215        4.1407174870       -2.0847803927  MEOH      3681            0.0000000000
     54252      4373  MEOH      DC1            -0.1765941507        4.1501679902       -2.0525455846  MEOH      3681            0.0000000000
     54253      4373  MEOH      O1             -0.4175952437        2.9003154409       -2.7589330897  MEOH      3681            0.0000000000
     54254      4373  MEOH      DO1            -0.4142374101        2.9023837400       -2.7250053652  MEOH      3681            0.0000000000
     54255      4373  MEOH      HO1            -1.2263568742        2.9959070456       -3.2858741401  MEOH      3681            0.0000000000
     54256      4373  MEOH      HO2             0.4025231391        2.7346429127       -3.2497064096  MEOH      3681            0.0000000000
     54257      4373  MEOH      H1A             0.8318834140        4.1331836258       -1.6561222354  MEOH      3681            0.0000000000
     54258      4373  MEOH      H1B            -0.9506330848        4.2771179155       -1.2836534169  MEOH      3681            0.0000000000
     54259      4373  MEOH      H1C            -0.2679729769        4.9929613560       -2.7935751284  MEOH      3681            0.0000000000
     54260      4373  MEOH      LP1A           -0.2530530062        2.9004652733       -3.0678438043  MEOH      3681            0.0000000000
     54261      4373  MEOH      LP1B           -0.6102732353        2.6880849176       -2.5581013279  MEOH      3681            0.0000000000
     54262      4374  MEOH      C1            -15.9320538260      -33.5696723290        7.9012425649  MEOH      3682            0.0000000000
     54263      4374  MEOH      DC1           -15.9344384812      -33.5553064435        7.9017807077  MEOH      3682            0.0000000000
     54264      4374  MEOH      O1            -16.0204898103      -32.1450223318        7.7824048948  MEOH      3682            0.0000000000
     54265      4374  MEOH      DO1           -16.0145748404      -32.1373815769        7.7846809180  MEOH      3682            0.0000000000
     54266      4374  MEOH      HO1           -16.7617564460      -31.8512018691        8.3347574199  MEOH      3682            0.0000000000
     54267      4374  MEOH      HO2           -15.1254100520      -31.7980747415        7.9215436598  MEOH      3682            0.0000000000
     54268      4374  MEOH      H1A           -15.1720378778      -33.9637029383        7.1931206562  MEOH      3682            0.0000000000
     54269      4374  MEOH      H1B           -16.9117132216      -34.0458343201        7.6824773296  MEOH      3682            0.0000000000
     54270      4374  MEOH      H1C           -15.6310933416      -33.8617058052        8.9300575318  MEOH      3682            0.0000000000
     54271      4374  MEOH      LP1A          -15.8194034879      -31.9919869857        8.0245711059  MEOH      3682            0.0000000000
     54272      4374  MEOH      LP1B          -16.2273819313      -32.0599671326        7.5132185962  MEOH      3682            0.0000000000
     54273      4375  MEOH      C1              6.3185116304      -30.6703284708       20.7483615313  MEOH      3683            0.0000000000
     54274      4375  MEOH      DC1             6.3238251380      -30.6712017993       20.7465604032  MEOH      3683            0.0000000000
     54275      4375  MEOH      O1              5.8846595983      -31.8515269560       20.0847420542  MEOH      3683            0.0000000000
     54276      4375  MEOH      DO1             5.8996957041      -31.8537472293       20.0732020612  MEOH      3683            0.0000000000
     54277      4375  MEOH      HO1             5.2664919445      -31.5848016172       19.3864395788  MEOH      3683            0.0000000000
     54278      4375  MEOH      HO2             6.6612464495      -32.4145225834       19.9403509675  MEOH      3683            0.0000000000
     54279      4375  MEOH      H1A             6.7307226674      -30.9203785035       21.7493001119  MEOH      3683            0.0000000000
     54280      4375  MEOH      H1B             5.4585261192      -29.9788599263       20.8772691514  MEOH      3683            0.0000000000
     54281      4375  MEOH      H1C             7.1080784941      -30.1750159205       20.1437371470  MEOH      3683            0.0000000000
     54282      4375  MEOH      LP1A            6.1018565757      -31.9272711274       19.8209461227  MEOH      3683            0.0000000000
     54283      4375  MEOH      LP1B            5.6010147094      -31.9808969445       20.2438300269  MEOH      3683            0.0000000000
     54284      4376  MEOH      C1             36.8793094153       22.9149529826       31.2362138415  MEOH      3684            0.0000000000
     54285      4376  MEOH      DC1            36.8928727164       22.9116723637       31.2191246436  MEOH      3684            0.0000000000
     54286      4376  MEOH      O1             36.3416219114       24.1472977063       31.7153897282  MEOH      3684            0.0000000000
     54287      4376  MEOH      DO1            36.3575832982       24.1388694072       31.7092728887  MEOH      3684            0.0000000000
     54288      4376  MEOH      HO1            37.0532815005       24.7314636942       32.0206612938  MEOH      3684            0.0000000000
     54289      4376  MEOH      HO2            35.6889046024       24.4409985334       31.0607142828  MEOH      3684            0.0000000000
     54290      4376  MEOH      H1A            36.0385330102       22.2073242914       31.0728808300  MEOH      3684            0.0000000000
     54291      4376  MEOH      H1B            37.5567580576       22.4647569133       31.9929884686  MEOH      3684            0.0000000000
     54292      4376  MEOH      H1C            37.4117177769       23.0770015758       30.2746512634  MEOH      3684            0.0000000000
     54293      4376  MEOH      LP1A           36.3156327138       24.3768456829       31.4524595320  MEOH      3684            0.0000000000
     54294      4376  MEOH      LP1B           36.2668243180       24.1207675273       32.0562730948  MEOH      3684            0.0000000000
     54295      4377  MEOH      C1              1.3368869191       -3.8497415668       20.4793040668  MEOH      3685            0.0000000000
     54296      4377  MEOH      DC1             1.3425999948       -3.8587070522       20.4761833128  MEOH      3685            0.0000000000
     54297      4377  MEOH      O1              1.5505706628       -4.8908912073       19.5278671663  MEOH      3685            0.0000000000
     54298      4377  MEOH      DO1             1.5560179531       -4.8988209798       19.5218361872  MEOH      3685            0.0000000000
     54299      4377  MEOH      HO1             1.4845834683       -5.7232085265       20.0216217316  MEOH      3685            0.0000000000
     54300      4377  MEOH      HO2             0.9266322839       -4.7113001488       18.8072091676  MEOH      3685            0.0000000000
     54301      4377  MEOH      H1A             1.4467932790       -2.8558440690       19.9951456673  MEOH      3685            0.0000000000
     54302      4377  MEOH      H1B             2.0682143758       -3.9330788963       21.3114915708  MEOH      3685            0.0000000000
     54303      4377  MEOH      H1C             0.3024341084       -3.9295343711       20.8766219386  MEOH      3685            0.0000000000
     54304      4377  MEOH      LP1A            1.2461888072       -4.9849077173       19.3829099940  MEOH      3685            0.0000000000
     54305      4377  MEOH      LP1B            1.8921234638       -4.9637760292       19.5048565846  MEOH      3685            0.0000000000
     54306      4378  MEOH      C1            -14.5154827674      -16.6794679568        0.5974844168  MEOH      3686            0.0000000000
     54307      4378  MEOH      DC1           -14.5194856505      -16.7006845763        0.6010492333  MEOH      3686            0.0000000000
     54308      4378  MEOH      O1            -14.5002805718      -15.3230678150        1.0267373589  MEOH      3686            0.0000000000
     54309      4378  MEOH      DO1           -14.5091055846      -15.3331539904        1.0252516234  MEOH      3686            0.0000000000
     54310      4378  MEOH      HO1           -13.9746320006      -14.8199018254        0.3853189568  MEOH      3686            0.0000000000
     54311      4378  MEOH      HO2           -15.4227222602      -15.0902499071        1.2159387184  MEOH      3686            0.0000000000
     54312      4378  MEOH      H1A           -14.9335785518      -17.3143984903        1.4076573198  MEOH      3686            0.0000000000
     54313      4378  MEOH      H1B           -13.4716586221      -16.9942595825        0.3838061831  MEOH      3686            0.0000000000
     54314      4378  MEOH      H1C           -15.1422258260      -16.7891738781       -0.3132728230  MEOH      3686            0.0000000000
     54315      4378  MEOH      LP1A          -14.7735786457      -15.1515312450        0.8911520797  MEOH      3686            0.0000000000
     54316      4378  MEOH      LP1B          -14.2309088842      -15.2691526538        1.2436060965  MEOH      3686            0.0000000000
     54317      4379  MEOH      C1              9.0462899426       -4.7118586778       27.1919471377  MEOH      3687            0.0000000000
     54318      4379  MEOH      DC1             9.0409347854       -4.7158995097       27.1856846115  MEOH      3687            0.0000000000
     54319      4379  MEOH      O1              9.1672572498       -4.2318393211       25.8515579892  MEOH      3687            0.0000000000
     54320      4379  MEOH      DO1             9.1621781474       -4.2378766263       25.8463627713  MEOH      3687            0.0000000000
     54321      4379  MEOH      HO1             8.4801799268       -3.5589806288       25.7247276573  MEOH      3687            0.0000000000
     54322      4379  MEOH      HO2            10.0986974211       -3.9818085952       25.7476164509  MEOH      3687            0.0000000000
     54323      4379  MEOH      H1A             9.8092473157       -5.4995696430       27.3700720469  MEOH      3687            0.0000000000
     54324      4379  MEOH      H1B             8.0344851188       -5.1413273690       27.3535907019  MEOH      3687            0.0000000000
     54325      4379  MEOH      H1C             9.2087685871       -3.8829215796       27.9136014729  MEOH      3687            0.0000000000
     54326      4379  MEOH      LP1A            9.3906768983       -3.9626522947       25.8405123801  MEOH      3687            0.0000000000
     54327      4379  MEOH      LP1B            8.9729192579       -4.4277395094       25.6362538760  MEOH      3687            0.0000000000
     54328      4380  MEOH      C1             -2.4071394506        2.6272503878      -35.2054687419  MEOH      3688            0.0000000000
     54329      4380  MEOH      DC1            -2.4078996387        2.6170910454      -35.1788094724  MEOH      3688            0.0000000000
     54330      4380  MEOH      O1             -2.6063792311        1.2565647438      -35.5686111022  MEOH      3688            0.0000000000
     54331      4380  MEOH      DO1            -2.6106996825        1.2426070710      -35.5430914262  MEOH      3688            0.0000000000
     54332      4380  MEOH      HO1            -2.3115970732        0.6813891022      -34.8453017208  MEOH      3688            0.0000000000
     54333      4380  MEOH      HO2            -3.4976209209        1.1940162605      -35.9463357870  MEOH      3688            0.0000000000
     54334      4380  MEOH      H1A            -2.6201165307        3.2712010404      -36.0854058547  MEOH      3688            0.0000000000
     54335      4380  MEOH      H1B            -1.3517887189        2.8006841923      -34.9046755415  MEOH      3688            0.0000000000
     54336      4380  MEOH      H1C            -3.0960296404        2.9096894902      -34.3808600712  MEOH      3688            0.0000000000
     54337      4380  MEOH      LP1A           -2.9269184190        1.1529455422      -35.4736495832  MEOH      3688            0.0000000000
     54338      4380  MEOH      LP1B           -2.3234275596        1.1343103294      -35.7344188517  MEOH      3688            0.0000000000
     54339      4381  MEOH      C1              6.2045686226       29.6859934140        0.0580584544  MEOH      3689            0.0000000000
     54340      4381  MEOH      DC1             6.2008614203       29.6721729045        0.0484169519  MEOH      3689            0.0000000000
     54341      4381  MEOH      O1              5.1396100638       28.8997417789       -0.4476766165  MEOH      3689            0.0000000000
     54342      4381  MEOH      DO1             5.1425559292       28.8956918005       -0.4519056483  MEOH      3689            0.0000000000
     54343      4381  MEOH      HO1             4.9326991184       28.2291902924        0.2219864067  MEOH      3689            0.0000000000
     54344      4381  MEOH      HO2             4.4499122555       29.5326428843       -0.7019464052  MEOH      3689            0.0000000000
     54345      4381  MEOH      H1A             6.4833519994       30.4414320123       -0.7073913188  MEOH      3689            0.0000000000
     54346      4381  MEOH      H1B             7.0941171204       29.0549554197        0.2697552201  MEOH      3689            0.0000000000
     54347      4381  MEOH      H1C             5.8914745174       30.2174717965        0.9820843254  MEOH      3689            0.0000000000
     54348      4381  MEOH      LP1A            4.8326742078       29.0414115414       -0.3570120772  MEOH      3689            0.0000000000
     54349      4381  MEOH      LP1B            5.2664982253       28.6315626514       -0.6333627766  MEOH      3689            0.0000000000
     54350      4382  MEOH      C1            -10.6397743818       32.1591506805        5.7785226463  MEOH      3690            0.0000000000
     54351      4382  MEOH      DC1           -10.6396244101       32.1616214572        5.7884130791  MEOH      3690            0.0000000000
     54352      4382  MEOH      O1             -9.5949002638       32.6694446134        4.9442831680  MEOH      3690            0.0000000000
     54353      4382  MEOH      DO1            -9.5927639780       32.6678888400        4.9535078253  MEOH      3690            0.0000000000
     54354      4382  MEOH      HO1            -9.1321727646       33.3824260434        5.4116596149  MEOH      3690            0.0000000000
     54355      4382  MEOH      HO2            -9.1134144667       31.8962538614        4.6107453317  MEOH      3690            0.0000000000
     54356      4382  MEOH      H1A           -11.2809671374       31.4736400993        5.1841590432  MEOH      3690            0.0000000000
     54357      4382  MEOH      H1B           -11.2658094161       32.9898933359        6.1687376851  MEOH      3690            0.0000000000
     54358      4382  MEOH      H1C           -10.2151455156       31.5886607224        6.6320755352  MEOH      3690            0.0000000000
     54359      4382  MEOH      LP1A           -9.2998669593       32.4889956517        4.9980746305  MEOH      3690            0.0000000000
     54360      4382  MEOH      LP1B           -9.7180107919       32.9277524476        4.7427369930  MEOH      3690            0.0000000000
     54361      4383  MEOH      C1            -23.0141458158       -6.0690186821        2.1709793606  MEOH      3691            0.0000000000
     54362      4383  MEOH      DC1           -23.0065628705       -6.0797828793        2.1621498073  MEOH      3691            0.0000000000
     54363      4383  MEOH      O1            -21.7544102665       -5.3954595459        2.2431309654  MEOH      3691            0.0000000000
     54364      4383  MEOH      DO1           -21.7568482914       -5.3996272563        2.2247964595  MEOH      3691            0.0000000000
     54365      4383  MEOH      HO1           -21.8787351950       -4.6008624799        2.7854028666  MEOH      3691            0.0000000000
     54366      4383  MEOH      HO2           -21.1216467093       -6.0656882531        2.5452960881  MEOH      3691            0.0000000000
     54367      4383  MEOH      H1A           -22.9120492375       -6.9874475090        1.5542251312  MEOH      3691            0.0000000000
     54368      4383  MEOH      H1B           -23.7861457098       -5.4143654218        1.7129768799  MEOH      3691            0.0000000000
     54369      4383  MEOH      H1C           -23.3690748404       -6.3409382455        3.1880369502  MEOH      3691            0.0000000000
     54370      4383  MEOH      LP1A          -21.5700783311       -5.5151848443        2.5155049556  MEOH      3691            0.0000000000
     54371      4383  MEOH      LP1B          -21.7231464776       -5.1711455082        1.9762868387  MEOH      3691            0.0000000000
     54372      4384  MEOH      C1             18.4542854794        3.4157916652      -13.6311790484  MEOH      3692            0.0000000000
     54373      4384  MEOH      DC1            18.4518539734        3.4211257695      -13.6308932204  MEOH      3692            0.0000000000
     54374      4384  MEOH      O1             19.0074433677        4.2166974680      -14.6787862009  MEOH      3692            0.0000000000
     54375      4384  MEOH      DO1            19.0033684660        4.2251995986      -14.6851391422  MEOH      3692            0.0000000000
     54376      4384  MEOH      HO1            19.0751703247        5.1190156526      -14.3293080836  MEOH      3692            0.0000000000
     54377      4384  MEOH      HO2            19.8136457672        3.7517674520      -14.9522414461  MEOH      3692            0.0000000000
     54378      4384  MEOH      H1A            18.3579038996        2.3625141044      -13.9712348857  MEOH      3692            0.0000000000
     54379      4384  MEOH      H1B            17.4500649109        3.7951454012      -13.3449050657  MEOH      3692            0.0000000000
     54380      4384  MEOH      H1C            19.1266390220        3.4422911921      -12.7471205159  MEOH      3692            0.0000000000
     54381      4384  MEOH      LP1A           19.3569205004        4.2137837280      -14.6598853059  MEOH      3692            0.0000000000
     54382      4384  MEOH      LP1B           18.7510565840        4.3444674782      -14.8798847878  MEOH      3692            0.0000000000
     54383      4385  MEOH      C1             35.7558971795      -27.4695471873       14.8647565651  MEOH      3693            0.0000000000
     54384      4385  MEOH      DC1            35.7607856527      -27.4602374232       14.8683902657  MEOH      3693            0.0000000000
     54385      4385  MEOH      O1             36.1495915098      -26.3927462003       15.7170520928  MEOH      3693            0.0000000000
     54386      4385  MEOH      DO1            36.1400035178      -26.3722495036       15.7084210080  MEOH      3693            0.0000000000
     54387      4385  MEOH      HO1            37.1084942489      -26.2886651554       15.6142285834  MEOH      3693            0.0000000000
     54388      4385  MEOH      HO2            35.8325120735      -26.6386097550       16.6001782127  MEOH      3693            0.0000000000
     54389      4385  MEOH      H1A            35.5836937696      -28.3784020017       15.4801019253  MEOH      3693            0.0000000000
     54390      4385  MEOH      H1B            36.5538354708      -27.6834951633       14.1218960487  MEOH      3693            0.0000000000
     54391      4385  MEOH      H1C            34.8199237605      -27.2095291167       14.3256226641  MEOH      3693            0.0000000000
     54392      4385  MEOH      LP1A           36.1276795112      -26.0891585034       15.5442679077  MEOH      3693            0.0000000000
     54393      4385  MEOH      LP1B           36.2265817497      -26.5145412857       16.0360167619  MEOH      3693            0.0000000000
     54394      4386  MEOH      C1             22.5758939700       -2.6055107042       25.7379219307  MEOH      3694            0.0000000000
     54395      4386  MEOH      DC1            22.5697137558       -2.6140806261       25.7349820525  MEOH      3694            0.0000000000
     54396      4386  MEOH      O1             21.6943095317       -3.3986364863       24.9374131376  MEOH      3694            0.0000000000
     54397      4386  MEOH      DO1            21.6876664413       -3.4060010822       24.9347028089  MEOH      3694            0.0000000000
     54398      4386  MEOH      HO1            21.2515656310       -4.0166293138       25.5398769990  MEOH      3694            0.0000000000
     54399      4386  MEOH      HO2            21.1708890064       -2.7665521618       24.4203054502  MEOH      3694            0.0000000000
     54400      4386  MEOH      H1A            23.1573569579       -1.9169408690       25.0882347926  MEOH      3694            0.0000000000
     54401      4386  MEOH      H1B            23.2821927358       -3.2600751881       26.2920053090  MEOH      3694            0.0000000000
     54402      4386  MEOH      H1C            21.9941334197       -2.0091540647       26.4729283393  MEOH      3694            0.0000000000
     54403      4386  MEOH      LP1A           21.3816718150       -3.2430948517       24.9136548127  MEOH      3694            0.0000000000
     54404      4386  MEOH      LP1B           21.8627791702       -3.6811663569       24.8178520522  MEOH      3694            0.0000000000
     54405      4387  MEOH      C1              6.3217973964       28.3738827917        7.3829909431  MEOH      3695            0.0000000000
     54406      4387  MEOH      DC1             6.3204930577       28.3710008976        7.3791878666  MEOH      3695            0.0000000000
     54407      4387  MEOH      O1              7.5808962631       27.8540633634        7.7974583430  MEOH      3695            0.0000000000
     54408      4387  MEOH      DO1             7.5870542027       27.8548022130        7.8029471629  MEOH      3695            0.0000000000
     54409      4387  MEOH      HO1             8.0218062255       27.5158071473        7.0024230372  MEOH      3695            0.0000000000
     54410      4387  MEOH      HO2             7.9946014058       28.5363408353        8.3490428856  MEOH      3695            0.0000000000
     54411      4387  MEOH      H1A             5.7484792300       28.7041182256        8.2754996759  MEOH      3695            0.0000000000
     54412      4387  MEOH      H1B             5.7447140369       27.5895941818        6.8480262959  MEOH      3695            0.0000000000
     54413      4387  MEOH      H1C             6.4871365991       29.2427599633        6.7106544133  MEOH      3695            0.0000000000
     54414      4387  MEOH      LP1A            7.8232948925       28.1063877451        7.7887801594  MEOH      3695            0.0000000000
     54415      4387  MEOH      LP1B            7.5478411825       27.5172437956        7.8866768410  MEOH      3695            0.0000000000
     54416      4388  MEOH      C1              2.8385545537        3.7647536198       -9.4712148170  MEOH      3696            0.0000000000
     54417      4388  MEOH      DC1             2.8526930399        3.7496682388       -9.4761323866  MEOH      3696            0.0000000000
     54418      4388  MEOH      O1              4.0482015192        3.0369411751       -9.2772435491  MEOH      3696            0.0000000000
     54419      4388  MEOH      DO1             4.0584158825        3.0283887384       -9.2785874401  MEOH      3696            0.0000000000
     54420      4388  MEOH      HO1             4.0399970462        2.7630873215       -8.3467400545  MEOH      3696            0.0000000000
     54421      4388  MEOH      HO2             4.0779294232        2.3788575351       -9.9892422676  MEOH      3696            0.0000000000
     54422      4388  MEOH      H1A             2.8401267571        4.2473815915      -10.4719089618  MEOH      3696            0.0000000000
     54423      4388  MEOH      H1B             2.7440276917        4.5555405544       -8.6965912329  MEOH      3696            0.0000000000
     54424      4388  MEOH      H1C             1.9631849431        3.0848003306       -9.3956332762  MEOH      3696            0.0000000000
     54425      4388  MEOH      LP1A            3.9971225384        2.6983574271       -9.3497141177  MEOH      3696            0.0000000000
     54426      4388  MEOH      LP1B            4.3053225663        3.2549792443       -9.1831788502  MEOH      3696            0.0000000000
     54427      4389  MEOH      C1              4.3603315946      -21.5963440905       24.7489544968  MEOH      3697            0.0000000000
     54428      4389  MEOH      DC1             4.3443527805      -21.5964488193       24.7330601395  MEOH      3697            0.0000000000
     54429      4389  MEOH      O1              5.1435269343      -20.7482125245       25.5789288594  MEOH      3697            0.0000000000
     54430      4389  MEOH      DO1             5.1197777113      -20.7462766440       25.5595295914  MEOH      3697            0.0000000000
     54431      4389  MEOH      HO1             6.0904476314      -20.8597412845       25.4005962189  MEOH      3697            0.0000000000
     54432      4389  MEOH      HO2             4.7000360233      -19.8858155002       25.6010011152  MEOH      3697            0.0000000000
     54433      4389  MEOH      H1A             3.3675008651      -21.7457764404       25.2246414899  MEOH      3697            0.0000000000
     54434      4389  MEOH      H1B             4.8726691069      -22.5771864587       24.6500630236  MEOH      3697            0.0000000000
     54435      4389  MEOH      H1C             4.2166231751      -21.1481535923       23.7425777443  MEOH      3697            0.0000000000
     54436      4389  MEOH      LP1A            5.1896736018      -20.4380362046       25.4234903325  MEOH      3697            0.0000000000
     54437      4389  MEOH      LP1B            5.2196919470      -20.9115021992       25.8789878086  MEOH      3697            0.0000000000
     54438      4390  MEOH      C1             -9.7536661831       -7.0416943748       -6.9761260912  MEOH      3698            0.0000000000
     54439      4390  MEOH      DC1            -9.7513345641       -7.0479544271       -6.9621272756  MEOH      3698            0.0000000000
     54440      4390  MEOH      O1             -9.8252799203       -6.8700856264       -5.5590681231  MEOH      3698            0.0000000000
     54441      4390  MEOH      DO1            -9.8297153697       -6.8837374719       -5.5468573363  MEOH      3698            0.0000000000
     54442      4390  MEOH      HO1            -9.4860986214       -7.6824093811       -5.1516541272  MEOH      3698            0.0000000000
     54443      4390  MEOH      HO2            -9.3859264620       -6.0246217685       -5.3772456706  MEOH      3698            0.0000000000
     54444      4390  MEOH      H1A           -10.1214465719       -6.1244016211       -7.4837012980  MEOH      3698            0.0000000000
     54445      4390  MEOH      H1B           -10.3873522135       -7.8985840540       -7.2899781145  MEOH      3698            0.0000000000
     54446      4390  MEOH      H1C            -8.7032571141       -7.2273601871       -7.2867544806  MEOH      3698            0.0000000000
     54447      4390  MEOH      LP1A           -9.5300173529       -6.7237590468       -5.4411336143  MEOH      3698            0.0000000000
     54448      4390  MEOH      LP1B          -10.1369244849       -6.9771615579       -5.4411172424  MEOH      3698            0.0000000000
     54449      4391  MEOH      C1             -1.5607007547       -6.2848162807      -29.8276778605  MEOH      3699            0.0000000000
     54450      4391  MEOH      DC1            -1.5526290256       -6.2921300292      -29.8270535263  MEOH      3699            0.0000000000
     54451      4391  MEOH      O1             -2.0505709775       -7.0855295854      -30.9006642425  MEOH      3699            0.0000000000
     54452      4391  MEOH      DO1            -2.0463584743       -7.0892580513      -30.8970318087  MEOH      3699            0.0000000000
     54453      4391  MEOH      HO1            -2.1541417624       -7.9897711834      -30.5652238968  MEOH      3699            0.0000000000
     54454      4391  MEOH      HO2            -2.8293063262       -6.6141108418      -31.2356801001  MEOH      3699            0.0000000000
     54455      4391  MEOH      H1A            -1.4118725708       -5.2420086753      -30.1808399617  MEOH      3699            0.0000000000
     54456      4391  MEOH      H1B            -0.5876963898       -6.6727820512      -29.4574535112  MEOH      3699            0.0000000000
     54457      4391  MEOH      H1C            -2.3052402231       -6.2766334555      -29.0031082624  MEOH      3699            0.0000000000
     54458      4391  MEOH      LP1A           -2.4004986044       -7.0795035860      -30.9044514879  MEOH      3699            0.0000000000
     54459      4391  MEOH      LP1B           -1.7828657455       -7.2168334166      -31.0839487555  MEOH      3699            0.0000000000
     54460      4392  MEOH      C1            -36.3831066489       -6.7099835687        4.7265483867  MEOH      3700            0.0000000000
     54461      4392  MEOH      DC1           -36.3828793478       -6.7119401120        4.7223602062  MEOH      3700            0.0000000000
     54462      4392  MEOH      O1            -35.4803162102       -6.9090002782        3.6345305029  MEOH      3700            0.0000000000
     54463      4392  MEOH      DO1           -35.4795501678       -6.9079599195        3.6307522972  MEOH      3700            0.0000000000
     54464      4392  MEOH      HO1           -35.5340618486       -6.1220229303        3.0700147267  MEOH      3700            0.0000000000
     54465      4392  MEOH      HO2           -34.6345780584       -7.1574644740        4.0393669167  MEOH      3700            0.0000000000
     54466      4392  MEOH      H1A           -36.4850602722       -7.6524096374        5.3059960252  MEOH      3700            0.0000000000
     54467      4392  MEOH      H1B           -37.3997949074       -6.4230839306        4.3825213769  MEOH      3700            0.0000000000
     54468      4392  MEOH      H1C           -36.0190749437       -5.8922424884        5.3846528186  MEOH      3700            0.0000000000
     54469      4392  MEOH      LP1A          -35.1622499160       -6.7897789809        3.7189112753  MEOH      3700            0.0000000000
     54470      4392  MEOH      LP1B          -35.6444041326       -7.0717706849        3.3716979546  MEOH      3700            0.0000000000
     54471      4393  MEOH      C1             23.2251514427      -35.8251601742        7.9374817788  MEOH      3701            0.0000000000
     54472      4393  MEOH      DC1            23.2256728658      -35.8336710415        7.9101954654  MEOH      3701            0.0000000000
     54473      4393  MEOH      O1             24.4285403797      -35.2870744804        8.4835047947  MEOH      3701            0.0000000000
     54474      4393  MEOH      DO1            24.4246102111      -35.2960136888        8.4649570150  MEOH      3701            0.0000000000
     54475      4393  MEOH      HO1            24.6269487093      -34.4439538955        8.0468335064  MEOH      3701            0.0000000000
     54476      4393  MEOH      HO2            24.2872335682      -35.2924477916        9.4431419728  MEOH      3701            0.0000000000
     54477      4393  MEOH      H1A            23.0463264053      -36.8197354953        8.3991770643  MEOH      3701            0.0000000000
     54478      4393  MEOH      H1B            23.3353017669      -35.9257252959        6.8365391991  MEOH      3701            0.0000000000
     54479      4393  MEOH      H1C            22.3484246101      -35.1841724600        8.1715881897  MEOH      3701            0.0000000000
     54480      4393  MEOH      LP1A           24.3550528187      -35.0870433439        8.7611504732  MEOH      3701            0.0000000000
     54481      4393  MEOH      LP1B           24.7048273572      -35.4058768117        8.3044754336  MEOH      3701            0.0000000000
     54482      4394  MEOH      C1             -6.7348238202      -18.9024947931       11.3047135188  MEOH      3702            0.0000000000
     54483      4394  MEOH      DC1            -6.7372246621      -18.9151501066       11.3072631034  MEOH      3702            0.0000000000
     54484      4394  MEOH      O1             -7.2701895074      -19.2831264676       12.5740241177  MEOH      3702            0.0000000000
     54485      4394  MEOH      DO1            -7.2673593479      -19.2964480948       12.5736607905  MEOH      3702            0.0000000000
     54486      4394  MEOH      HO1            -8.0858442204      -19.7851313752       12.4204062094  MEOH      3702            0.0000000000
     54487      4394  MEOH      HO2            -6.5325070123      -19.6524050237       13.0842768839  MEOH      3702            0.0000000000
     54488      4394  MEOH      H1A            -5.9434677468      -18.1334694603       11.4338514423  MEOH      3702            0.0000000000
     54489      4394  MEOH      H1B            -7.5403347303      -18.4730474674       10.6714298791  MEOH      3702            0.0000000000
     54490      4394  MEOH      H1C            -6.2930497882      -19.7847187253       10.7939908548  MEOH      3702            0.0000000000
     54491      4394  MEOH      LP1A           -7.1369613078      -19.5914146491       12.6725565692  MEOH      3702            0.0000000000
     54492      4394  MEOH      LP1B           -7.4843513454      -19.0333505932       12.6933837411  MEOH      3702            0.0000000000
     54493      4395  MEOH      C1            -36.8315686341        4.8839377709       13.6567057176  MEOH      3703            0.0000000000
     54494      4395  MEOH      DC1           -36.8496197135        4.8699493069       13.6682342190  MEOH      3703            0.0000000000
     54495      4395  MEOH      O1            -35.5349242262        5.0188070718       13.0747174513  MEOH      3703            0.0000000000
     54496      4395  MEOH      DO1           -35.5567565761        4.9945694443       13.0824839624  MEOH      3703            0.0000000000
     54497      4395  MEOH      HO1           -35.0150402904        5.6906076974       13.5430171561  MEOH      3703            0.0000000000
     54498      4395  MEOH      HO2           -35.2013427749        4.1222688151       12.9139612089  MEOH      3703            0.0000000000
     54499      4395  MEOH      H1A           -37.4767569479        4.3474078099       12.9285651809  MEOH      3703            0.0000000000
     54500      4395  MEOH      H1B           -37.2749212604        5.8827466152       13.8570562637  MEOH      3703            0.0000000000
     54501      4395  MEOH      H1C           -36.7812200957        4.2901855848       14.5943860300  MEOH      3703            0.0000000000
     54502      4395  MEOH      LP1A          -35.3121380243        4.7949403236       13.2255484404  MEOH      3703            0.0000000000
     54503      4395  MEOH      LP1B          -35.5428840028        5.2571974078       12.8185794228  MEOH      3703            0.0000000000
     54504      4396  MEOH      C1            -26.5814975514      -19.2363525300        0.7690598022  MEOH      3704            0.0000000000
     54505      4396  MEOH      DC1           -26.5698977095      -19.2650447939        0.7549412671  MEOH      3704            0.0000000000
     54506      4396  MEOH      O1            -26.7434591095      -20.1824578178       -0.2912185572  MEOH      3704            0.0000000000
     54507      4396  MEOH      DO1           -26.7412067597      -20.2056601554       -0.2920608062  MEOH      3704            0.0000000000
     54508      4396  MEOH      HO1           -27.5422806684      -19.9018122322       -0.7645283631  MEOH      3704            0.0000000000
     54509      4396  MEOH      HO2           -25.8950986861      -20.1918779188       -0.7614268675  MEOH      3704            0.0000000000
     54510      4396  MEOH      H1A           -25.7227026410      -19.5154724569        1.4162725725  MEOH      3704            0.0000000000
     54511      4396  MEOH      H1B           -27.5035289991      -19.1905744500        1.3871887348  MEOH      3704            0.0000000000
     54512      4396  MEOH      H1C           -26.3817820555      -18.2252390983        0.3542292959  MEOH      3704            0.0000000000
     54513      4396  MEOH      LP1A          -26.5691372794      -20.0751179995       -0.5751024471  MEOH      3704            0.0000000000
     54514      4396  MEOH      LP1B          -26.9354472995      -20.4536906548       -0.1813400649  MEOH      3704            0.0000000000
     54515      4397  MEOH      C1            -15.2805757799       12.4710804120      -16.4783421611  MEOH      3705            0.0000000000
     54516      4397  MEOH      DC1           -15.2816885229       12.4731404515      -16.4755998555  MEOH      3705            0.0000000000
     54517      4397  MEOH      O1            -14.0765917150       13.1363003929      -16.1378188475  MEOH      3705            0.0000000000
     54518      4397  MEOH      DO1           -14.0841423034       13.1387781749      -16.1356485219  MEOH      3705            0.0000000000
     54519      4397  MEOH      HO1           -13.6837775888       13.4895447248      -16.9513392870  MEOH      3705            0.0000000000
     54520      4397  MEOH      HO2           -14.2891529256       13.7042794508      -15.3807735902  MEOH      3705            0.0000000000
     54521      4397  MEOH      H1A           -15.6922961765       11.9737637029      -15.5741942717  MEOH      3705            0.0000000000
     54522      4397  MEOH      H1B           -15.1101060429       11.7057064004      -17.2654023199  MEOH      3705            0.0000000000
     54523      4397  MEOH      H1C           -16.0132973773       13.2226900817      -16.8423792002  MEOH      3705            0.0000000000
     54524      4397  MEOH      LP1A          -14.1423676395       13.4716467174      -16.0622121650  MEOH      3705            0.0000000000
     54525      4397  MEOH      LP1B          -13.8090764738       12.9107205928      -16.1448437657  MEOH      3705            0.0000000000
     54526      4398  MEOH      C1             24.9540389785        6.7988020941       13.5844104653  MEOH      3706            0.0000000000
     54527      4398  MEOH      DC1            24.9495458797        6.8070400200       13.5584308965  MEOH      3706            0.0000000000
     54528      4398  MEOH      O1             24.0463423920        6.4483257917       12.5337804053  MEOH      3706            0.0000000000
     54529      4398  MEOH      DO1            24.0295361967        6.4614080000       12.5104388745  MEOH      3706            0.0000000000
     54530      4398  MEOH      HO1            24.5996714879        6.3039302804       11.7502774711  MEOH      3706            0.0000000000
     54531      4398  MEOH      HO2            23.5294675479        5.7079998776       12.8882630389  MEOH      3706            0.0000000000
     54532      4398  MEOH      H1A            24.4201846258        6.8355372505       14.5580485184  MEOH      3706            0.0000000000
     54533      4398  MEOH      H1B            25.4162033533        7.7906868180       13.3923433252  MEOH      3706            0.0000000000
     54534      4398  MEOH      H1C            25.7576345464        6.0350210596       13.6564777605  MEOH      3706            0.0000000000
     54535      4398  MEOH      LP1A           23.9962492819        6.1019562097       12.5294453171  MEOH      3706            0.0000000000
     54536      4398  MEOH      LP1B           23.9358607791        6.7370925600       12.3697451446  MEOH      3706            0.0000000000
     54537      4399  MEOH      C1             21.2687770095       18.0255904764        7.6091623089  MEOH      3707            0.0000000000
     54538      4399  MEOH      DC1            21.2614635416       18.0252817961        7.6082877192  MEOH      3707            0.0000000000
     54539      4399  MEOH      O1             19.8637537739       18.0325169671        7.8635176597  MEOH      3707            0.0000000000
     54540      4399  MEOH      DO1            19.8565749527       18.0284954456        7.8623137535  MEOH      3707            0.0000000000
     54541      4399  MEOH      HO1            19.4131389816       18.3210037159        7.0544307018  MEOH      3707            0.0000000000
     54542      4399  MEOH      HO2            19.6563523948       17.1808709677        8.2789496755  MEOH      3707            0.0000000000
     54543      4399  MEOH      H1A            21.8215948115       17.8289521843        8.5525852578  MEOH      3707            0.0000000000
     54544      4399  MEOH      H1B            21.5886832159       19.0113263748        7.2087802943  MEOH      3707            0.0000000000
     54545      4399  MEOH      H1C            21.5143160079       17.2280375392        6.8757177547  MEOH      3707            0.0000000000
     54546      4399  MEOH      LP1A           19.7272021379       17.7188055656        7.7897693901  MEOH      3707            0.0000000000
     54547      4399  MEOH      LP1B           19.7666497349       18.3438167838        7.9906523509  MEOH      3707            0.0000000000
     54548      4400  MEOH      C1            -20.4022781336        1.1360198259       20.2548617205  MEOH      3708            0.0000000000
     54549      4400  MEOH      DC1           -20.4384395596        1.1402806716       20.2728793501  MEOH      3708            0.0000000000
     54550      4400  MEOH      O1            -21.5698660304        0.5399283849       20.8313494692  MEOH      3708            0.0000000000
     54551      4400  MEOH      DO1           -21.6012088328        0.5396723208       20.8476533712  MEOH      3708            0.0000000000
     54552      4400  MEOH      HO1           -22.2326668485        0.5700935242       20.1237583869  MEOH      3708            0.0000000000
     54553      4400  MEOH      HO2           -21.2734777795       -0.3219158971       21.1634314457  MEOH      3708            0.0000000000
     54554      4400  MEOH      H1A           -19.5516411345        1.1050373567       20.9688489630  MEOH      3708            0.0000000000
     54555      4400  MEOH      H1B           -20.6065283005        2.1942711447       19.9852193340  MEOH      3708            0.0000000000
     54556      4400  MEOH      H1C           -20.0960724223        0.5806896432       19.3426295950  MEOH      3708            0.0000000000
     54557      4400  MEOH      LP1A          -21.5657387219        0.1938537653       20.7792407078  MEOH      3708            0.0000000000
     54558      4400  MEOH      LP1B          -21.7635056400        0.7847454510       20.9896792066  MEOH      3708            0.0000000000
     54559      4401  MEOH      C1             25.0597151005      -25.0817424921      -12.3293890051  MEOH      3709            0.0000000000
     54560      4401  MEOH      DC1            25.0436702353      -25.0860791215      -12.3304513589  MEOH      3709            0.0000000000
     54561      4401  MEOH      O1             24.6371632952      -25.6396758611      -13.5743197523  MEOH      3709            0.0000000000
     54562      4401  MEOH      DO1            24.6116048403      -25.6463233432      -13.5634896744  MEOH      3709            0.0000000000
     54563      4401  MEOH      HO1            24.6058177280      -24.9131208792      -14.2162195219  MEOH      3709            0.0000000000
     54564      4401  MEOH      HO2            25.2688253151      -26.3540366536      -13.7520604361  MEOH      3709            0.0000000000
     54565      4401  MEOH      H1A            25.2736896963      -25.8967677043      -11.6053242444  MEOH      3709            0.0000000000
     54566      4401  MEOH      H1B            24.2657453972      -24.4229962254      -11.9170948541  MEOH      3709            0.0000000000
     54567      4401  MEOH      H1C            25.9890814521      -24.4911451050      -12.4770166141  MEOH      3709            0.0000000000
     54568      4401  MEOH      LP1A           24.9149753361      -25.7492939688      -13.7568145204  MEOH      3709            0.0000000000
     54569      4401  MEOH      LP1B           24.2878605043      -25.6339616456      -13.5956483244  MEOH      3709            0.0000000000
     54570      4402  MEOH      C1             36.7625220624       11.3607611888      -35.0503707377  MEOH      3710            0.0000000000
     54571      4402  MEOH      DC1            36.7592498708       11.3579610130      -35.0574217848  MEOH      3710            0.0000000000
     54572      4402  MEOH      O1             36.6276387171        9.9523678414      -34.8376055483  MEOH      3710            0.0000000000
     54573      4402  MEOH      DO1            36.6209280682        9.9533681934      -34.8340898794  MEOH      3710            0.0000000000
     54574      4402  MEOH      HO1            36.2936095216        9.5549918153      -35.6570058109  MEOH      3710            0.0000000000
     54575      4402  MEOH      HO2            37.4803284508        9.6618623452      -34.4778462176  MEOH      3710            0.0000000000
     54576      4402  MEOH      H1A            37.0821533673       11.8464534226      -34.1036607063  MEOH      3710            0.0000000000
     54577      4402  MEOH      H1B            35.7881951729       11.7948366476      -35.3611545992  MEOH      3710            0.0000000000
     54578      4402  MEOH      H1C            37.5263861804       11.5631573102      -35.8313114657  MEOH      3710            0.0000000000
     54579      4402  MEOH      LP1A           36.9269551743        9.7899018910      -34.9183178361  MEOH      3710            0.0000000000
     54580      4402  MEOH      LP1B           36.3095567356        9.8804207644      -34.7105328482  MEOH      3710            0.0000000000
     54581      4403  MEOH      C1             10.7322696869      -18.6664096598       12.1637176363  MEOH      3711            0.0000000000
     54582      4403  MEOH      DC1            10.7350606144      -18.6548508463       12.1554311630  MEOH      3711            0.0000000000
     54583      4403  MEOH      O1             10.5876998725      -18.5861437597       10.7466703047  MEOH      3711            0.0000000000
     54584      4403  MEOH      DO1            10.5904293636      -18.5795467120       10.7432693439  MEOH      3711            0.0000000000
     54585      4403  MEOH      HO1             9.7192713148      -18.9537388207       10.5195013978  MEOH      3711            0.0000000000
     54586      4403  MEOH      HO2            10.8260559611      -17.6791423598       10.4988097881  MEOH      3711            0.0000000000
     54587      4403  MEOH      H1A            11.7271485595      -18.2748068860       12.4656850146  MEOH      3711            0.0000000000
     54588      4403  MEOH      H1B            10.6453699602      -19.7179094122       12.5117373322  MEOH      3711            0.0000000000
     54589      4403  MEOH      H1C             9.9399211518      -18.0664947456       12.6603129388  MEOH      3711            0.0000000000
     54590      4403  MEOH      LP1A           10.4463878115      -18.2784625044       10.6579959197  MEOH      3711            0.0000000000
     54591      4403  MEOH      LP1B           10.7151638255      -18.8755870536       10.5967519260  MEOH      3711            0.0000000000
     54592      4404  MEOH      C1             -0.9035675056        4.2935112400      -20.9250812274  MEOH      3712            0.0000000000
     54593      4404  MEOH      DC1            -0.8838996386        4.3090953231      -20.9279505462  MEOH      3712            0.0000000000
     54594      4404  MEOH      O1             -1.1768901995        3.3421612207      -21.9513860393  MEOH      3712            0.0000000000
     54595      4404  MEOH      DO1            -1.1628533160        3.3597526653      -21.9594087641  MEOH      3712            0.0000000000
     54596      4404  MEOH      HO1            -2.1002343478        3.0615164023      -21.8535388642  MEOH      3712            0.0000000000
     54597      4404  MEOH      HO2            -0.8486231478        3.7311579841      -22.7771113336  MEOH      3712            0.0000000000
     54598      4404  MEOH      H1A             0.1960277937        4.4130090908      -20.8205276839  MEOH      3712            0.0000000000
     54599      4404  MEOH      H1B            -1.3320943527        3.9445581579      -19.9612775708  MEOH      3712            0.0000000000
     54600      4404  MEOH      H1C            -1.3466667456        5.2776841409      -21.1884968016  MEOH      3712            0.0000000000
     54601      4404  MEOH      LP1A           -1.2895339051        3.5059046694      -22.2394823401  MEOH      3712            0.0000000000
     54602      4404  MEOH      LP1B           -1.0993727343        3.0197285196      -21.8394566156  MEOH      3712            0.0000000000
     54603      4405  MEOH      C1            -20.9859730353       36.6701305180      -29.3910654600  MEOH      3713            0.0000000000
     54604      4405  MEOH      DC1           -20.9742247128       36.6792422862      -29.3776719337  MEOH      3713            0.0000000000
     54605      4405  MEOH      O1            -20.6822231038       35.4941545979      -30.1388485268  MEOH      3713            0.0000000000
     54606      4405  MEOH      DO1           -20.6723721253       35.4952795092      -30.1193326915  MEOH      3713            0.0000000000
     54607      4405  MEOH      HO1           -20.5105966473       34.7666987089      -29.5205829763  MEOH      3713            0.0000000000
     54608      4405  MEOH      HO2           -21.4082570500       35.4003897235      -30.7752311611  MEOH      3713            0.0000000000
     54609      4405  MEOH      H1A           -21.2039345643       37.4969345495      -30.1004376229  MEOH      3713            0.0000000000
     54610      4405  MEOH      H1B           -20.1225896970       36.9474605052      -28.7492101089  MEOH      3713            0.0000000000
     54611      4405  MEOH      H1C           -21.8872969582       36.4964878960      -28.7651386061  MEOH      3713            0.0000000000
     54612      4405  MEOH      LP1A          -20.9764727542       35.3190317280      -30.2112993630  MEOH      3713            0.0000000000
     54613      4405  MEOH      LP1B          -20.3383016558       35.4777592828      -30.2016914360  MEOH      3713            0.0000000000
     54614      4406  MEOH      C1             33.0714360557       32.3940812369       26.2455149288  MEOH      3714            0.0000000000
     54615      4406  MEOH      DC1            33.0642890752       32.4000961826       26.2364729482  MEOH      3714            0.0000000000
     54616      4406  MEOH      O1             32.2620090098       31.7330091043       25.2619319049  MEOH      3714            0.0000000000
     54617      4406  MEOH      DO1            32.2691139194       31.7316389541       25.2497791410  MEOH      3714            0.0000000000
     54618      4406  MEOH      HO1            31.4531973480       32.2532400735       25.1351114184  MEOH      3714            0.0000000000
     54619      4406  MEOH      HO2            32.8484755119       31.5311485364       24.5161374606  MEOH      3714            0.0000000000
     54620      4406  MEOH      H1A            33.9329352416       31.7522103623       26.5286084361  MEOH      3714            0.0000000000
     54621      4406  MEOH      H1B            32.4885431921       32.5843200601       27.1719954196  MEOH      3714            0.0000000000
     54622      4406  MEOH      H1C            33.4532030275       33.3564490829       25.8424974229  MEOH      3714            0.0000000000
     54623      4406  MEOH      LP1A           32.3465780184       31.8460803342       24.9416773502  MEOH      3714            0.0000000000
     54624      4406  MEOH      LP1B           32.0503545290       31.5014318413       25.4170910232  MEOH      3714            0.0000000000
     54625      4407  MEOH      C1              1.4991697402       33.9726285656      -24.0478680824  MEOH      3715            0.0000000000
     54626      4407  MEOH      DC1             1.5061811147       33.9624001930      -24.0500251618  MEOH      3715            0.0000000000
     54627      4407  MEOH      O1              0.7913270339       34.6179046179      -22.9962188053  MEOH      3715            0.0000000000
     54628      4407  MEOH      DO1             0.8027820717       34.6052261862      -22.9978829383  MEOH      3715            0.0000000000
     54629      4407  MEOH      HO1             0.1364656289       35.2216968746      -23.3802649641  MEOH      3715            0.0000000000
     54630      4407  MEOH      HO2             0.5185696175       33.9212122712      -22.3788670694  MEOH      3715            0.0000000000
     54631      4407  MEOH      H1A             2.3878692300       33.4651421073      -23.6154426990  MEOH      3715            0.0000000000
     54632      4407  MEOH      H1B             1.8633711445       34.7190765645      -24.7857662610  MEOH      3715            0.0000000000
     54633      4407  MEOH      H1C             0.8450964478       33.2274873421      -24.5491401519  MEOH      3715            0.0000000000
     54634      4407  MEOH      LP1A            0.5123519667       34.4272099392      -22.9050680985  MEOH      3715            0.0000000000
     54635      4407  MEOH      LP1B            0.9573947317       34.9114414168      -22.9026363953  MEOH      3715            0.0000000000
     54636      4408  MEOH      C1            -35.3539904662       14.3840013981       -3.0219106391  MEOH      3716            0.0000000000
     54637      4408  MEOH      DC1           -35.3509477072       14.3890807340       -3.0301603210  MEOH      3716            0.0000000000
     54638      4408  MEOH      O1            -33.9969265848       14.4301852798       -2.5743197755  MEOH      3716            0.0000000000
     54639      4408  MEOH      DO1           -33.9878925513       14.4381485359       -2.5889971939  MEOH      3716            0.0000000000
     54640      4408  MEOH      HO1           -33.9519365866       13.8513702453       -1.7972425229  MEOH      3716            0.0000000000
     54641      4408  MEOH      HO2           -33.4541070426       14.2349048574       -3.3541354597  MEOH      3716            0.0000000000
     54642      4408  MEOH      H1A           -35.4847155419       15.0517590903       -3.9001655113  MEOH      3716            0.0000000000
     54643      4408  MEOH      H1B           -36.0380599459       14.7190281720       -2.2131294522  MEOH      3716            0.0000000000
     54644      4408  MEOH      H1C           -35.6175959933       13.3445886130       -3.3125206669  MEOH      3716            0.0000000000
     54645      4408  MEOH      LP1A          -33.8092606322       14.1825137493       -2.7353797122  MEOH      3716            0.0000000000
     54646      4408  MEOH      LP1B          -33.9547752075       14.6928229837       -2.3468451661  MEOH      3716            0.0000000000
     54647      4409  MEOH      C1             -1.7234745671       21.6148134157      -35.7232282908  MEOH      3717            0.0000000000
     54648      4409  MEOH      DC1            -1.7320022038       21.6133430731      -35.7382008004  MEOH      3717            0.0000000000
     54649      4409  MEOH      O1             -1.3813453476       20.3317536532      -35.2204975913  MEOH      3717            0.0000000000
     54650      4409  MEOH      DO1            -1.3911409313       20.3341820098      -35.2248740277  MEOH      3717            0.0000000000
     54651      4409  MEOH      HO1            -1.3449255781       19.7043383731      -35.9593640659  MEOH      3717            0.0000000000
     54652      4409  MEOH      HO2            -0.6031315298       20.4756684311      -34.6596305922  MEOH      3717            0.0000000000
     54653      4409  MEOH      H1A            -1.8252275783       22.3401538840      -34.8878550017  MEOH      3717            0.0000000000
     54654      4409  MEOH      H1B            -2.6931723847       21.5495837674      -36.2615146793  MEOH      3717            0.0000000000
     54655      4409  MEOH      H1C            -0.9225082255       21.9760711216      -36.4031303348  MEOH      3717            0.0000000000
     54656      4409  MEOH      LP1A           -1.0334125624       20.2941445046      -35.2151750994  MEOH      3717            0.0000000000
     54657      4409  MEOH      LP1B           -1.6710981346       20.1573148946      -35.1304173946  MEOH      3717            0.0000000000
     54658      4410  MEOH      C1            -29.5842696385       -0.3656464346       26.1089829861  MEOH      3718            0.0000000000
     54659      4410  MEOH      DC1           -29.5828525652       -0.3757552117       26.1163435602  MEOH      3718            0.0000000000
     54660      4410  MEOH      O1            -29.0682612685        0.5652029537       25.1589136739  MEOH      3718            0.0000000000
     54661      4410  MEOH      DO1           -29.0662862255        0.5532144976       25.1638977685  MEOH      3718            0.0000000000
     54662      4410  MEOH      HO1           -28.4132201638        1.1370163419       25.5888562297  MEOH      3718            0.0000000000
     54663      4410  MEOH      HO2           -28.8438967440        0.0545253997       24.3653338128  MEOH      3718            0.0000000000
     54664      4410  MEOH      H1A           -30.4703092436       -0.8741063377       25.6722641444  MEOH      3718            0.0000000000
     54665      4410  MEOH      H1B           -29.9149264869        0.1611928347       27.0295412045  MEOH      3718            0.0000000000
     54666      4410  MEOH      H1C           -28.8112864005       -1.1272616230       26.3472270176  MEOH      3718            0.0000000000
     54667      4410  MEOH      LP1A          -28.7905150166        0.4282447615       24.9958202249  MEOH      3718            0.0000000000
     54668      4410  MEOH      LP1B          -29.2661682235        0.8538430017       25.1544684663  MEOH      3718            0.0000000000
     54669      4411  MEOH      C1            -32.3216199763      -11.2968456005       -5.0110664568  MEOH      3719            0.0000000000
     54670      4411  MEOH      DC1           -32.3260942875      -11.3046029512       -5.0126008177  MEOH      3719            0.0000000000
     54671      4411  MEOH      O1            -31.0250476424      -11.0064338156       -4.4842365201  MEOH      3719            0.0000000000
     54672      4411  MEOH      DO1           -31.0267714536      -11.0086841756       -4.4833208628  MEOH      3719            0.0000000000
     54673      4411  MEOH      HO1           -31.1461675693      -10.6350975369       -3.5963517688  MEOH      3719            0.0000000000
     54674      4411  MEOH      HO2           -30.4973846444      -11.8097797949       -4.6150302457  MEOH      3719            0.0000000000
     54675      4411  MEOH      H1A           -32.2209181442      -11.6351144636       -6.0645152299  MEOH      3719            0.0000000000
     54676      4411  MEOH      H1B           -32.9578089979      -10.3864406658       -4.9837281372  MEOH      3719            0.0000000000
     54677      4411  MEOH      H1C           -32.8016940911      -12.1036644230       -4.4170182827  MEOH      3719            0.0000000000
     54678      4411  MEOH      LP1A          -30.8985785069      -11.2863325467       -4.3164203764  MEOH      3719            0.0000000000
     54679      4411  MEOH      LP1B          -30.9295386273      -10.6817621068       -4.5734907051  MEOH      3719            0.0000000000
     54680      4412  MEOH      C1            -18.3292958890       19.2690781232        0.1851642185  MEOH      3720            0.0000000000
     54681      4412  MEOH      DC1           -18.3445489910       19.2636600933        0.1851050541  MEOH      3720            0.0000000000
     54682      4412  MEOH      O1            -17.7909937544       18.0569065455        0.7083428886  MEOH      3720            0.0000000000
     54683      4412  MEOH      DO1           -17.8081376879       18.0484343184        0.7023066559  MEOH      3720            0.0000000000
     54684      4412  MEOH      HO1           -16.8244728333       18.1388521428        0.7130575540  MEOH      3720            0.0000000000
     54685      4412  MEOH      HO2           -18.2741201739       17.8774938773        1.5301092535  MEOH      3720            0.0000000000
     54686      4412  MEOH      H1A           -19.4363193602       19.1884333211        0.1370346963  MEOH      3720            0.0000000000
     54687      4412  MEOH      H1B           -17.9254164729       19.4504445284       -0.8338100914  MEOH      3720            0.0000000000
     54688      4412  MEOH      H1C           -18.0617979085       20.1216508883        0.8453804802  MEOH      3720            0.0000000000
     54689      4412  MEOH      LP1A          -17.7632448137       18.0787191324        1.0565586368  MEOH      3720            0.0000000000
     54690      4412  MEOH      LP1B          -17.7389738542       17.8273908243        0.4492744349  MEOH      3720            0.0000000000
     54691      4413  MEOH      C1             21.6511248176        5.1624900063      -12.3249247402  MEOH      3721            0.0000000000
     54692      4413  MEOH      DC1            21.6486066679        5.1722542076      -12.3314205670  MEOH      3721            0.0000000000
     54693      4413  MEOH      O1             22.5282715797        6.1189028501      -12.9239988840  MEOH      3721            0.0000000000
     54694      4413  MEOH      DO1            22.5247178819        6.1189114998      -12.9310353137  MEOH      3721            0.0000000000
     54695      4413  MEOH      HO1            22.2524931313        7.0036724809      -12.6375919221  MEOH      3721            0.0000000000
     54696      4413  MEOH      HO2            23.4249526701        5.8151613597      -12.7128019835  MEOH      3721            0.0000000000
     54697      4413  MEOH      H1A            21.9010845464        4.1472391132      -12.7005665375  MEOH      3721            0.0000000000
     54698      4413  MEOH      H1B            20.5937317974        5.3854666249      -12.5828441637  MEOH      3721            0.0000000000
     54699      4413  MEOH      H1C            21.7705425720        5.1729139278      -11.2204104842  MEOH      3721            0.0000000000
     54700      4413  MEOH      LP1A           22.8053202854        6.1732809294      -12.7171486020  MEOH      3721            0.0000000000
     54701      4413  MEOH      LP1B           22.4038950014        6.2162258700      -13.2363427595  MEOH      3721            0.0000000000
     54702      4414  MEOH      C1             33.8371825572       34.2774199316      -19.5857936057  MEOH      3722            0.0000000000
     54703      4414  MEOH      DC1            33.8328808018       34.2750864210      -19.5860743046  MEOH      3722            0.0000000000
     54704      4414  MEOH      O1             32.9731453384       33.4528969709      -18.7990857012  MEOH      3722            0.0000000000
     54705      4414  MEOH      DO1            32.9630147500       33.4550096789      -18.7964144343  MEOH      3722            0.0000000000
     54706      4414  MEOH      HO1            33.2232287388       33.5873095459      -17.8715666697  MEOH      3722            0.0000000000
     54707      4414  MEOH      HO2            32.0719570584       33.6369929223      -19.1070927865  MEOH      3722            0.0000000000
     54708      4414  MEOH      H1A            33.6709749851       34.0783556983      -20.6661035037  MEOH      3722            0.0000000000
     54709      4414  MEOH      H1B            34.8995652353       34.0494360888      -19.3540881607  MEOH      3722            0.0000000000
     54710      4414  MEOH      H1C            33.6342547817       35.3488553919      -19.3732674369  MEOH      3722            0.0000000000
     54711      4414  MEOH      LP1A           32.6825833756       33.6293088538      -18.7157034888  MEOH      3722            0.0000000000
     54712      4414  MEOH      LP1B           33.1138651085       33.1347846379      -18.7603237366  MEOH      3722            0.0000000000
     54713      4415  MEOH      C1             20.8825688065      -29.2324896549      -23.9409296183  MEOH      3723            0.0000000000
     54714      4415  MEOH      DC1            20.8759215858      -29.2410146617      -23.9274731492  MEOH      3723            0.0000000000
     54715      4415  MEOH      O1             21.7660352214      -30.1840266657      -24.5297712288  MEOH      3723            0.0000000000
     54716      4415  MEOH      DO1            21.7603635922      -30.2004169910      -24.5088064487  MEOH      3723            0.0000000000
     54717      4415  MEOH      HO1            21.2936509297      -30.5722613497      -25.2827831222  MEOH      3723            0.0000000000
     54718      4415  MEOH      HO2            22.5700707338      -29.6774881674      -24.7243107996  MEOH      3723            0.0000000000
     54719      4415  MEOH      H1A            21.4211570432      -28.6529830836      -23.1609194610  MEOH      3723            0.0000000000
     54720      4415  MEOH      H1B            20.0067142263      -29.7459537517      -23.4897596109  MEOH      3723            0.0000000000
     54721      4415  MEOH      H1C            20.5318872610      -28.5118786977      -24.7103861171  MEOH      3723            0.0000000000
     54722      4415  MEOH      LP1A           21.9652656521      -30.0285588200      -24.7719219761  MEOH      3723            0.0000000000
     54723      4415  MEOH      LP1B           21.7231185302      -30.4967732872      -24.3786166445  MEOH      3723            0.0000000000
     54724      4416  MEOH      C1             26.4848345956      -25.2314135360      -19.5574807381  MEOH      3724            0.0000000000
     54725      4416  MEOH      DC1            26.4626270527      -25.2435833132      -19.5459580522  MEOH      3724            0.0000000000
     54726      4416  MEOH      O1             25.2696778251      -24.5967564536      -19.9618517444  MEOH      3724            0.0000000000
     54727      4416  MEOH      DO1            25.2585307885      -24.6068794845      -19.9431388148  MEOH      3724            0.0000000000
     54728      4416  MEOH      HO1            25.3462553340      -24.4092790942      -20.9104760772  MEOH      3724            0.0000000000
     54729      4416  MEOH      HO2            24.5404609835      -25.1271865204      -19.6043790277  MEOH      3724            0.0000000000
     54730      4416  MEOH      H1A            26.5583262128      -25.2319547952      -18.4489142355  MEOH      3724            0.0000000000
     54731      4416  MEOH      H1B            27.3554201074      -24.6719457544      -19.9617055127  MEOH      3724            0.0000000000
     54732      4416  MEOH      H1C            26.5237486402      -26.2741808502      -19.9388506708  MEOH      3724            0.0000000000
     54733      4416  MEOH      LP1A           25.0352758108      -24.8378454434      -20.0589691716  MEOH      3724            0.0000000000
     54734      4416  MEOH      LP1B           25.2965701449      -24.2501063150      -19.9217209011  MEOH      3724            0.0000000000
     54735      4417  MEOH      C1             21.6456786431       31.1871716050       22.2737169697  MEOH      3725            0.0000000000
     54736      4417  MEOH      DC1            21.6417999312       31.1764857891       22.2630528055  MEOH      3725            0.0000000000
     54737      4417  MEOH      O1             21.4162243154       31.9009698103       21.0544292298  MEOH      3725            0.0000000000
     54738      4417  MEOH      DO1            21.4160955978       31.8961224023       21.0413720046  MEOH      3725            0.0000000000
     54739      4417  MEOH      HO1            21.2949921422       31.2461544693       20.3491494063  MEOH      3725            0.0000000000
     54740      4417  MEOH      HO2            20.7102409465       32.5358355284       21.2530066811  MEOH      3725            0.0000000000
     54741      4417  MEOH      H1A            21.8303767284       31.9089717783       23.0978602386  MEOH      3725            0.0000000000
     54742      4417  MEOH      H1B            22.5320524176       30.5246563736       22.1750452924  MEOH      3725            0.0000000000
     54743      4417  MEOH      H1C            20.7513575440       30.5818953093       22.5347751603  MEOH      3725            0.0000000000
     54744      4417  MEOH      LP1A           21.0739791449       31.9621582506       21.0141276413  MEOH      3725            0.0000000000
     54745      4417  MEOH      LP1B           21.7210112937       31.9691227281       20.8964416428  MEOH      3725            0.0000000000
     54746      4418  MEOH      C1              8.8030881877       15.1105313779       34.8020560307  MEOH      3726            0.0000000000
     54747      4418  MEOH      DC1             8.8065033557       15.1157364700       34.8027818956  MEOH      3726            0.0000000000
     54748      4418  MEOH      O1              9.9798021322       15.5093272456       35.4843876812  MEOH      3726            0.0000000000
     54749      4418  MEOH      DO1             9.9755124812       15.5188349075       35.4864438100  MEOH      3726            0.0000000000
     54750      4418  MEOH      HO1            10.6891097251       15.5663111516       34.8251945577  MEOH      3726            0.0000000000
     54751      4418  MEOH      HO2             9.7095848922       16.2798489922       36.0080086139  MEOH      3726            0.0000000000
     54752      4418  MEOH      H1A             7.9801037659       15.1191487758       35.5483424261  MEOH      3726            0.0000000000
     54753      4418  MEOH      H1B             8.9235845185       14.0938040675       34.3707009435  MEOH      3726            0.0000000000
     54754      4418  MEOH      H1C             8.5336559981       15.8259959593       33.9959308991  MEOH      3726            0.0000000000
     54755      4418  MEOH      LP1A           10.0006917837       15.8585993798       35.4929081697  MEOH      3726            0.0000000000
     54756      4418  MEOH      LP1B           10.1518281364       15.2277082062       35.6009971600  MEOH      3726            0.0000000000
     54757      4419  MEOH      C1            -16.5992147124       -7.9017395067      -13.0381760360  MEOH      3727            0.0000000000
     54758      4419  MEOH      DC1           -16.6014917955       -7.9098621505      -13.0092501260  MEOH      3727            0.0000000000
     54759      4419  MEOH      O1            -16.9408493413       -7.6639787459      -11.6697449767  MEOH      3727            0.0000000000
     54760      4419  MEOH      DO1           -16.9458999851       -7.6731860720      -11.6494459613  MEOH      3727            0.0000000000
     54761      4419  MEOH      HO1           -17.7203584600       -8.2106070554      -11.4841027768  MEOH      3727            0.0000000000
     54762      4419  MEOH      HO2           -16.1202181681       -7.7689360621      -11.1633375920  MEOH      3727            0.0000000000
     54763      4419  MEOH      H1A           -15.7980030704       -7.2034558567      -13.3618747376  MEOH      3727            0.0000000000
     54764      4419  MEOH      H1B           -17.4802462228       -7.7495120530      -13.6976692353  MEOH      3727            0.0000000000
     54765      4419  MEOH      H1C           -16.2347553406       -8.9448561152      -13.1539262362  MEOH      3727            0.0000000000
     54766      4419  MEOH      LP1A          -16.7693759238       -7.8882359941      -11.4628499460  MEOH      3727            0.0000000000
     54767      4419  MEOH      LP1B          -17.1606969247       -7.3926229895      -11.6466561584  MEOH      3727            0.0000000000
     54768      4420  MEOH      C1             29.4071060938       30.0702773496       -1.9422601253  MEOH      3728            0.0000000000
     54769      4420  MEOH      DC1            29.4097347880       30.0770492393       -1.9348611786  MEOH      3728            0.0000000000
     54770      4420  MEOH      O1             28.5939460898       29.2119173652       -2.7407418585  MEOH      3728            0.0000000000
     54771      4420  MEOH      DO1            28.5907607060       29.2177763299       -2.7399341028  MEOH      3728            0.0000000000
     54772      4420  MEOH      HO1            29.1872431590       28.5745683855       -3.1681583612  MEOH      3728            0.0000000000
     54773      4420  MEOH      HO2            27.8753336834       28.9102838206       -2.1632356557  MEOH      3728            0.0000000000
     54774      4420  MEOH      H1A            28.7744967503       30.8741609908       -1.5087886599  MEOH      3728            0.0000000000
     54775      4420  MEOH      H1B            30.2025375946       30.5266421435       -2.5694290841  MEOH      3728            0.0000000000
     54776      4420  MEOH      H1C            29.8778598010       29.4901977990       -1.1199343613  MEOH      3728            0.0000000000
     54777      4420  MEOH      LP1A           28.4857419812       28.9386557040       -2.5506894040  MEOH      3728            0.0000000000
     54778      4420  MEOH      LP1B           28.5563457663       29.3469129276       -3.0614635662  MEOH      3728            0.0000000000
     54779      4421  MEOH      C1            -21.0363120398       21.0538946302      -31.6765664478  MEOH      3729            0.0000000000
     54780      4421  MEOH      DC1           -21.0226459025       21.0546316099      -31.6816066869  MEOH      3729            0.0000000000
     54781      4421  MEOH      O1            -21.7811924269       21.4512803910      -30.5321957001  MEOH      3729            0.0000000000
     54782      4421  MEOH      DO1           -21.7709677267       21.4567272256      -30.5344944849  MEOH      3729            0.0000000000
     54783      4421  MEOH      HO1           -22.7151038285       21.4492044804      -30.7943124402  MEOH      3729            0.0000000000
     54784      4421  MEOH      HO2           -21.5016263868       20.8577249113      -29.8177485559  MEOH      3729            0.0000000000
     54785      4421  MEOH      H1A           -19.9517622833       21.0562803131      -31.4355952154  MEOH      3729            0.0000000000
     54786      4421  MEOH      H1B           -21.2314715192       21.7750445371      -32.4988660218  MEOH      3729            0.0000000000
     54787      4421  MEOH      H1C           -21.3485922973       20.0363556159      -31.9950258598  MEOH      3729            0.0000000000
     54788      4421  MEOH      LP1A          -21.8643489379       21.1707412149      -30.3401468381  MEOH      3729            0.0000000000
     54789      4421  MEOH      LP1B          -21.8136999818       21.7997048463      -30.5255882937  MEOH      3729            0.0000000000
     54790      4422  MEOH      C1            -19.9138654866       12.6235313937        3.4931818110  MEOH      3730            0.0000000000
     54791      4422  MEOH      DC1           -19.9265725970       12.6313255133        3.4871327121  MEOH      3730            0.0000000000
     54792      4422  MEOH      O1            -18.5838623999       12.8565786731        3.0423061020  MEOH      3730            0.0000000000
     54793      4422  MEOH      DO1           -18.5964911094       12.8575666816        3.0334427680  MEOH      3730            0.0000000000
     54794      4422  MEOH      HO1           -18.2961918341       13.7006823269        3.4239272062  MEOH      3730            0.0000000000
     54795      4422  MEOH      HO2           -18.0943106733       12.0615575043        3.3053278691  MEOH      3730            0.0000000000
     54796      4422  MEOH      H1A           -20.2312934602       11.6030591672        3.1895423563  MEOH      3730            0.0000000000
     54797      4422  MEOH      H1B           -20.5869885725       13.3797527971        3.0356279881  MEOH      3730            0.0000000000
     54798      4422  MEOH      H1C           -19.9713583858       12.6963451827        4.6003013703  MEOH      3730            0.0000000000
     54799      4422  MEOH      LP1A          -18.3551288854       12.7124128059        3.2645608704  MEOH      3730            0.0000000000
     54800      4422  MEOH      LP1B          -18.5891679003       13.0300636217        2.7383738327  MEOH      3730            0.0000000000
     54801      4423  MEOH      C1             12.1016978734      -24.2403533445       -4.1711093813  MEOH      3731            0.0000000000
     54802      4423  MEOH      DC1            12.1100711754      -24.2370893990       -4.1875975528  MEOH      3731            0.0000000000
     54803      4423  MEOH      O1             13.1129839467      -23.5596913286       -4.9036103506  MEOH      3731            0.0000000000
     54804      4423  MEOH      DO1            13.1263972304      -23.5636239884       -4.9150321936  MEOH      3731            0.0000000000
     54805      4423  MEOH      HO1            13.8731874501      -23.4577198730       -4.3098153897  MEOH      3731            0.0000000000
     54806      4423  MEOH      HO2            13.1692127922      -23.9834619935       -5.7743323162  MEOH      3731            0.0000000000
     54807      4423  MEOH      H1A            11.1527167732      -24.2172189020       -4.7483620721  MEOH      3731            0.0000000000
     54808      4423  MEOH      H1B            11.9257567769      -23.7359576695       -3.1969683568  MEOH      3731            0.0000000000
     54809      4423  MEOH      H1C            12.4132063465      -25.2901511280       -3.9834712031  MEOH      3731            0.0000000000
     54810      4423  MEOH      LP1A           13.3140144933      -23.7906747801       -5.0731195376  MEOH      3731            0.0000000000
     54811      4423  MEOH      LP1B           13.0752852225      -23.2137046452       -4.8665695470  MEOH      3731            0.0000000000
     54812      4424  MEOH      C1            -22.2403166466       21.3269255906        0.3315485759  MEOH      3732            0.0000000000
     54813      4424  MEOH      DC1           -22.2490184645       21.3128678006        0.3256392286  MEOH      3732            0.0000000000
     54814      4424  MEOH      O1            -23.5720171291       21.8446016440        0.3518361433  MEOH      3732            0.0000000000
     54815      4424  MEOH      DO1           -23.5800989609       21.8244453470        0.3706531473  MEOH      3732            0.0000000000
     54816      4424  MEOH      HO1           -24.1370979745       21.3445676068       -0.2577125421  MEOH      3732            0.0000000000
     54817      4424  MEOH      HO2           -23.7967286848       22.0404466342        1.2749013940  MEOH      3732            0.0000000000
     54818      4424  MEOH      H1A           -21.5539192984       22.0944750478        0.7487385946  MEOH      3732            0.0000000000
     54819      4424  MEOH      H1B           -21.9240066814       21.1025678149       -0.7095722598  MEOH      3732            0.0000000000
     54820      4424  MEOH      H1C           -22.1640430716       20.4160113574        0.9630060986  MEOH      3732            0.0000000000
     54821      4424  MEOH      LP1A          -23.7592593241       21.6836313291        0.5998863764  MEOH      3732            0.0000000000
     54822      4424  MEOH      LP1B          -23.6047293588       22.1001583236        0.1149380775  MEOH      3732            0.0000000000
     54823      4425  MEOH      C1             -2.0217618150      -28.8540102004      -10.6978680624  MEOH      3733            0.0000000000
     54824      4425  MEOH      DC1            -2.0141994117      -28.8538256057      -10.7101720930  MEOH      3733            0.0000000000
     54825      4425  MEOH      O1             -2.7294990563      -30.0873281665      -10.6855603333  MEOH      3733            0.0000000000
     54826      4425  MEOH      DO1            -2.7189379406      -30.0837516837      -10.7001050328  MEOH      3733            0.0000000000
     54827      4425  MEOH      HO1            -3.0314068781      -30.2628162588       -9.7805986785  MEOH      3733            0.0000000000
     54828      4425  MEOH      HO2            -3.3508613094      -30.0470678402      -11.4293264640  MEOH      3733            0.0000000000
     54829      4425  MEOH      H1A            -1.5624687105      -28.7036726241      -11.6982527178  MEOH      3733            0.0000000000
     54830      4425  MEOH      H1B            -1.1994622212      -28.8900152109       -9.9516455636  MEOH      3733            0.0000000000
     54831      4425  MEOH      H1C            -2.6995575747      -28.0051482009      -10.4647431733  MEOH      3733            0.0000000000
     54832      4425  MEOH      LP1A           -3.0684534338      -30.0315106653      -10.7526001462  MEOH      3733            0.0000000000
     54833      4425  MEOH      LP1B           -2.5078592866      -30.3519603488      -10.6277189939  MEOH      3733            0.0000000000
     54834      4426  MEOH      C1              4.8631703682      -15.9288534082      -10.0603943895  MEOH      3734            0.0000000000
     54835      4426  MEOH      DC1             4.8625108683      -15.9381072359      -10.0327281997  MEOH      3734            0.0000000000
     54836      4426  MEOH      O1              5.6100506495      -15.3445347807       -8.9971587374  MEOH      3734            0.0000000000
     54837      4426  MEOH      DO1             5.6054126880      -15.3507802652       -8.9754752084  MEOH      3734            0.0000000000
     54838      4426  MEOH      HO1             6.0956341381      -14.6112131691       -9.4062407482  MEOH      3734            0.0000000000
     54839      4426  MEOH      HO2             4.9795034498      -15.1913447000       -8.2761573310  MEOH      3734            0.0000000000
     54840      4426  MEOH      H1A             4.4199244025      -16.8970874449       -9.7435713095  MEOH      3734            0.0000000000
     54841      4426  MEOH      H1B             5.5298430160      -16.0988124677      -10.9327374991  MEOH      3734            0.0000000000
     54842      4426  MEOH      H1C             4.0368919021      -15.2587781954      -10.3806819266  MEOH      3734            0.0000000000
     54843      4426  MEOH      LP1A            5.4197442495      -15.0969036473       -8.8391641303  MEOH      3734            0.0000000000
     54844      4426  MEOH      LP1B            5.9215257232      -15.5016992097       -8.9691833791  MEOH      3734            0.0000000000
     54845      4427  MEOH      C1             36.5158762534      -32.2658647834      -22.1630572307  MEOH      3735            0.0000000000
     54846      4427  MEOH      DC1            36.5023327984      -32.2842436583      -22.1614165479  MEOH      3735            0.0000000000
     54847      4427  MEOH      O1             35.7731287402      -32.4288669415      -20.9561373805  MEOH      3735            0.0000000000
     54848      4427  MEOH      DO1            35.7579618585      -32.4457672716      -20.9552374144  MEOH      3735            0.0000000000
     54849      4427  MEOH      HO1            35.0689359553      -31.7618291761      -20.9646896812  MEOH      3735            0.0000000000
     54850      4427  MEOH      HO2            35.6028891544      -33.3785766961      -20.8562881677  MEOH      3735            0.0000000000
     54851      4427  MEOH      H1A            37.4704732898      -32.8306766604      -22.0993937112  MEOH      3735            0.0000000000
     54852      4427  MEOH      H1B            36.7565002928      -31.1915132108      -22.3120195438  MEOH      3735            0.0000000000
     54853      4427  MEOH      H1C            35.9228635893      -32.6207258886      -23.0329598553  MEOH      3735            0.0000000000
     54854      4427  MEOH      LP1A           35.5145493159      -32.6596352336      -21.0049500495  MEOH      3735            0.0000000000
     54855      4427  MEOH      LP1B           35.9139394654      -32.2341102844      -20.7016925255  MEOH      3735            0.0000000000
     54856      4428  MEOH      C1            -36.8726476209       -3.6456979922        8.4274647616  MEOH      3736            0.0000000000
     54857      4428  MEOH      DC1           -36.8691447023       -3.6523212102        8.4253592714  MEOH      3736            0.0000000000
     54858      4428  MEOH      O1            -36.3736778153       -2.4304673491        8.9920683415  MEOH      3736            0.0000000000
     54859      4428  MEOH      DO1           -36.3767214056       -2.4370652483        8.9975411752  MEOH      3736            0.0000000000
     54860      4428  MEOH      HO1           -35.7368355974       -2.0480755964        8.3682826911  MEOH      3736            0.0000000000
     54861      4428  MEOH      HO2           -37.1556711383       -1.9262589383        9.2662221690  MEOH      3736            0.0000000000
     54862      4428  MEOH      H1A           -37.5281849321       -4.1507248010        9.1687742504  MEOH      3736            0.0000000000
     54863      4428  MEOH      H1B           -36.0291535659       -4.3187082537        8.1630863062  MEOH      3736            0.0000000000
     54864      4428  MEOH      H1C           -37.4762136816       -3.4282631294        7.5204084840  MEOH      3736            0.0000000000
     54865      4428  MEOH      LP1A          -36.5781137793       -2.1622191447        8.8985331212  MEOH      3736            0.0000000000
     54866      4428  MEOH      LP1B          -36.0923165198       -2.4968171093        9.1893841561  MEOH      3736            0.0000000000
     54867      4429  MEOH      C1             -2.8939153096      -14.2712162421      -19.0894718579  MEOH      3737            0.0000000000
     54868      4429  MEOH      DC1            -2.8977936220      -14.2769861670      -19.0871167263  MEOH      3737            0.0000000000
     54869      4429  MEOH      O1             -1.5878648140      -14.4827274162      -19.6303869966  MEOH      3737            0.0000000000
     54870      4429  MEOH      DO1            -1.5891186123      -14.4865786509      -19.6341857153  MEOH      3737            0.0000000000
     54871      4429  MEOH      HO1            -1.3393044061      -15.4029501839      -19.4506433392  MEOH      3737            0.0000000000
     54872      4429  MEOH      HO2            -1.6148676137      -14.1413078424      -20.5379130422  MEOH      3737            0.0000000000
     54873      4429  MEOH      H1A            -3.1569402878      -13.1947563331      -19.1693024647  MEOH      3737            0.0000000000
     54874      4429  MEOH      H1B            -2.9126280754      -14.5652034492      -18.0182378244  MEOH      3737            0.0000000000
     54875      4429  MEOH      H1C            -3.6402949145      -14.8676511512      -19.6564849848  MEOH      3737            0.0000000000
     54876      4429  MEOH      LP1A           -1.6117587887      -14.5869249623      -19.9636615822  MEOH      3737            0.0000000000
     54877      4429  MEOH      LP1B           -1.3449482552      -14.4030667040      -19.3913352942  MEOH      3737            0.0000000000
     54878      4430  MEOH      C1             -0.1074929690       -4.2752691510        1.1109548591  MEOH      3738            0.0000000000
     54879      4430  MEOH      DC1            -0.0880938399       -4.2855391462        1.1310382283  MEOH      3738            0.0000000000
     54880      4430  MEOH      O1              0.4460845520       -3.5892121150       -0.0075950870  MEOH      3738            0.0000000000
     54881      4430  MEOH      DO1             0.4666426110       -3.6024106440        0.0257484607  MEOH      3738            0.0000000000
     54882      4430  MEOH      HO1             0.3671691241       -4.1506641169       -0.7946427379  MEOH      3738            0.0000000000
     54883      4430  MEOH      HO2            -0.0362176927       -2.7480533926       -0.0347345247  MEOH      3738            0.0000000000
     54884      4430  MEOH      H1A            -0.0738361676       -3.6169042083        2.0052388311  MEOH      3738            0.0000000000
     54885      4430  MEOH      H1B             0.4542212199       -5.2150314624        1.2997536092  MEOH      3738            0.0000000000
     54886      4430  MEOH      H1C            -1.1759681023       -4.5071047902        0.9136375325  MEOH      3738            0.0000000000
     54887      4430  MEOH      LP1A            0.1997009542       -3.3951034161       -0.1628913707  MEOH      3738            0.0000000000
     54888      4430  MEOH      LP1B            0.7880597733       -3.6590465407       -0.0335970292  MEOH      3738            0.0000000000
     54889      4431  MEOH      C1             -9.7974044213      -26.4146721709      -17.9277780232  MEOH      3739            0.0000000000
     54890      4431  MEOH      DC1            -9.7961126014      -26.4081498757      -17.9246113435  MEOH      3739            0.0000000000
     54891      4431  MEOH      O1             -8.7521659980      -25.8766607421      -18.7438736939  MEOH      3739            0.0000000000
     54892      4431  MEOH      DO1            -8.7502077935      -25.8699390871      -18.7410957684  MEOH      3739            0.0000000000
     54893      4431  MEOH      HO1            -8.5239180437      -26.5640462316      -19.3890899840  MEOH      3739            0.0000000000
     54894      4431  MEOH      HO2            -9.0902820514      -25.0281889637      -19.0704822910  MEOH      3739            0.0000000000
     54895      4431  MEOH      H1A           -10.0976043125      -25.6651206954      -17.1646439518  MEOH      3739            0.0000000000
     54896      4431  MEOH      H1B            -9.4448154523      -27.3404475598      -17.4248446779  MEOH      3739            0.0000000000
     54897      4431  MEOH      H1C           -10.6859348690      -26.6632639763      -18.5466776580  MEOH      3739            0.0000000000
     54898      4431  MEOH      LP1A           -8.8893133197      -25.7061429032      -19.0170298375  MEOH      3739            0.0000000000
     54899      4431  MEOH      LP1B           -8.4404815247      -25.9474026868      -18.6012259938  MEOH      3739            0.0000000000
     54900      4432  MEOH      C1            -31.4910915177      -14.5922060306        2.6807432500  MEOH      3740            0.0000000000
     54901      4432  MEOH      DC1           -31.4999160512      -14.5973655386        2.6691596815  MEOH      3740            0.0000000000
     54902      4432  MEOH      O1            -30.5674169513      -13.5333797400        2.9392307089  MEOH      3740            0.0000000000
     54903      4432  MEOH      DO1           -30.5743264640      -13.5292719297        2.9173118477  MEOH      3740            0.0000000000
     54904      4432  MEOH      HO1           -29.6967189557      -13.9232131452        3.1147724919  MEOH      3740            0.0000000000
     54905      4432  MEOH      HO2           -30.7178803714      -12.8533431667        2.2640929318  MEOH      3740            0.0000000000
     54906      4432  MEOH      H1A           -32.5250940843      -14.2007521762        2.7899383634  MEOH      3740            0.0000000000
     54907      4432  MEOH      H1B           -31.3398781097      -15.4176877321        3.4087785965  MEOH      3740            0.0000000000
     54908      4432  MEOH      H1C           -31.3527744246      -14.9747740427        1.6469003707  MEOH      3740            0.0000000000
     54909      4432  MEOH      LP1A          -30.4225491714      -13.4250850773        2.6395882680  MEOH      3740            0.0000000000
     54910      4432  MEOH      LP1B          -30.5658900585      -13.4565506941        3.2806907597  MEOH      3740            0.0000000000
     54911      4433  MEOH      C1              9.1797326109       -3.3232462942       32.1193720449  MEOH      3741            0.0000000000
     54912      4433  MEOH      DC1             9.1813592566       -3.3287028155       32.1281338034  MEOH      3741            0.0000000000
     54913      4433  MEOH      O1             10.2951177328       -4.0998108469       32.5652364561  MEOH      3741            0.0000000000
     54914      4433  MEOH      DO1            10.2929010527       -4.0992022246       32.5765308163  MEOH      3741            0.0000000000
     54915      4433  MEOH      HO1            10.9292235994       -4.1555561690       31.8333196503  MEOH      3741            0.0000000000
     54916      4433  MEOH      HO2            10.5528175558       -3.7339930213       33.4258572319  MEOH      3741            0.0000000000
     54917      4433  MEOH      H1A             8.3546303930       -3.3726688765       32.8617228649  MEOH      3741            0.0000000000
     54918      4433  MEOH      H1B             8.8176564138       -3.7138289300       31.1443504900  MEOH      3741            0.0000000000
     54919      4433  MEOH      H1C             9.4808554168       -2.2622029753       31.9858312979  MEOH      3741            0.0000000000
     54920      4433  MEOH      LP1A           10.5336371847       -3.8918541748       32.7147773990  MEOH      3741            0.0000000000
     54921      4433  MEOH      LP1B           10.2382844235       -4.4390576908       32.5005715205  MEOH      3741            0.0000000000
     54922      4434  MEOH      C1             32.9538340545       21.6723008898       20.5969293500  MEOH      3742            0.0000000000
     54923      4434  MEOH      DC1            32.9426325508       21.6652859396       20.5894782538  MEOH      3742            0.0000000000
     54924      4434  MEOH      O1             33.4185844097       20.7545202066       21.5893220533  MEOH      3742            0.0000000000
     54925      4434  MEOH      DO1            33.4070116482       20.7476432629       21.5777034874  MEOH      3742            0.0000000000
     54926      4434  MEOH      HO1            33.9697104721       20.0841466936       21.1560099065  MEOH      3742            0.0000000000
     54927      4434  MEOH      HO2            33.8330723494       21.3096581427       22.2682341393  MEOH      3742            0.0000000000
     54928      4434  MEOH      H1A            32.3881176381       22.4911622075       21.0906418966  MEOH      3742            0.0000000000
     54929      4434  MEOH      H1B            32.2919983006       21.1556382292       19.8693620804  MEOH      3742            0.0000000000
     54930      4434  MEOH      H1C            33.8132789717       22.1205948462       20.0540592335  MEOH      3742            0.0000000000
     54931      4434  MEOH      LP1A           33.7206321680       20.8678256270       21.7250756292  MEOH      3742            0.0000000000
     54932      4434  MEOH      LP1B           33.1887523800       20.4933862046       21.6278742409  MEOH      3742            0.0000000000
     54933      4435  MEOH      C1             -2.9298155692      -32.8671703072      -17.8616393744  MEOH      3743            0.0000000000
     54934      4435  MEOH      DC1            -2.9258013478      -32.8618209198      -17.8602222575  MEOH      3743            0.0000000000
     54935      4435  MEOH      O1             -3.6115699620      -33.2377297874      -19.0619536378  MEOH      3743            0.0000000000
     54936      4435  MEOH      DO1            -3.6068214747      -33.2282203504      -19.0660113033  MEOH      3743            0.0000000000
     54937      4435  MEOH      HO1            -2.9632887518      -33.6790169515      -19.6328276268  MEOH      3743            0.0000000000
     54938      4435  MEOH      HO2            -4.3905446065      -33.7368462061      -18.7704381071  MEOH      3743            0.0000000000
     54939      4435  MEOH      H1A            -3.6455537213      -32.3859449452      -17.1613094170  MEOH      3743            0.0000000000
     54940      4435  MEOH      H1B            -2.1145656885      -32.1484014795      -18.0919869476  MEOH      3743            0.0000000000
     54941      4435  MEOH      H1C            -2.5025363927      -33.7706682585      -17.3764126656  MEOH      3743            0.0000000000
     54942      4435  MEOH      LP1A           -3.7524560270      -33.5561188067      -19.0261828523  MEOH      3743            0.0000000000
     54943      4435  MEOH      LP1B           -3.5945881619      -32.9768621563      -19.2946759992  MEOH      3743            0.0000000000
     54944      4436  MEOH      C1             -5.9163196056        6.0439867029      -14.1353850401  MEOH      3744            0.0000000000
     54945      4436  MEOH      DC1            -5.9097645708        6.0414387873      -14.1366043546  MEOH      3744            0.0000000000
     54946      4436  MEOH      O1             -6.1253747664        4.6527025735      -13.9511284353  MEOH      3744            0.0000000000
     54947      4436  MEOH      DO1            -6.1146709770        4.6492940143      -13.9517004317  MEOH      3744            0.0000000000
     54948      4436  MEOH      HO1            -6.5976810417        4.5669671393      -13.1082309218  MEOH      3744            0.0000000000
     54949      4436  MEOH      HO2            -6.5708598971        4.3609916012      -14.7618982590  MEOH      3744            0.0000000000
     54950      4436  MEOH      H1A            -5.3286179653        6.2031187451      -15.0646884219  MEOH      3744            0.0000000000
     54951      4436  MEOH      H1B            -5.3605379730        6.4581513503      -13.2671135262  MEOH      3744            0.0000000000
     54952      4436  MEOH      H1C            -6.8862800558        6.5772589144      -14.2308757459  MEOH      3744            0.0000000000
     54953      4436  MEOH      LP1A           -6.4275263515        4.5564065463      -14.0992212940  MEOH      3744            0.0000000000
     54954      4436  MEOH      LP1B           -5.8531662840        4.5121290636      -13.7818900519  MEOH      3744            0.0000000000
     54955      4437  MEOH      C1             16.9127669410       -0.7641335399       16.1659705742  MEOH      3745            0.0000000000
     54956      4437  MEOH      DC1            16.9089138909       -0.7719275808       16.1497118830  MEOH      3745            0.0000000000
     54957      4437  MEOH      O1             17.0225719156       -2.1748512185       16.3835888608  MEOH      3745            0.0000000000
     54958      4437  MEOH      DO1            17.0155082522       -2.1799652166       16.3732787304  MEOH      3745            0.0000000000
     54959      4437  MEOH      HO1            16.9560713017       -2.6270598227       15.5280276134  MEOH      3745            0.0000000000
     54960      4437  MEOH      HO2            17.8252196235       -2.2890578965       16.9161426062  MEOH      3745            0.0000000000
     54961      4437  MEOH      H1A            16.9560236048       -0.2315251919       17.1400230424  MEOH      3745            0.0000000000
     54962      4437  MEOH      H1B            15.9487683336       -0.5183566704       15.6713784028  MEOH      3745            0.0000000000
     54963      4437  MEOH      H1C            17.7633188093       -0.4078636589       15.5463301209  MEOH      3745            0.0000000000
     54964      4437  MEOH      LP1A           17.3585945959       -2.2720322788       16.3715638943  MEOH      3745            0.0000000000
     54965      4437  MEOH      LP1B           16.7060404220       -2.3117610549       16.4432840053  MEOH      3745            0.0000000000
     54966      4438  MEOH      C1             35.9523717267        0.0717184088      -13.8691120584  MEOH      3746            0.0000000000
     54967      4438  MEOH      DC1            35.9465282822        0.0692957813      -13.8824293658  MEOH      3746            0.0000000000
     54968      4438  MEOH      O1             35.0315466932       -0.4642889915      -14.8237338125  MEOH      3746            0.0000000000
     54969      4438  MEOH      DO1            35.0170046102       -0.4595646796      -14.8384351559  MEOH      3746            0.0000000000
     54970      4438  MEOH      HO1            34.4485857260       -1.0484213665      -14.3139830115  MEOH      3746            0.0000000000
     54971      4438  MEOH      HO2            34.6746494412        0.2959050319      -15.3091505398  MEOH      3746            0.0000000000
     54972      4438  MEOH      H1A            36.7268872933        0.6814045420      -14.3816834749  MEOH      3746            0.0000000000
     54973      4438  MEOH      H1B            36.4488713655       -0.7517830044      -13.3126459488  MEOH      3746            0.0000000000
     54974      4438  MEOH      H1C            35.4125100765        0.7154009964      -13.1421023422  MEOH      3746            0.0000000000
     54975      4438  MEOH      LP1A           34.7530564555       -0.2542421893      -14.8524309974  MEOH      3746            0.0000000000
     54976      4438  MEOH      LP1B           35.1610756016       -0.7580435725      -14.9631271697  MEOH      3746            0.0000000000
     54977      4439  MEOH      C1             29.4771735456       24.7668230763       15.6114541407  MEOH      3747            0.0000000000
     54978      4439  MEOH      DC1            29.4803828426       24.7654209820       15.5988310716  MEOH      3747            0.0000000000
     54979      4439  MEOH      O1             30.5490839462       25.1652674898       16.4606827902  MEOH      3747            0.0000000000
     54980      4439  MEOH      DO1            30.5547539789       25.1596929141       16.4428974027  MEOH      3747            0.0000000000
     54981      4439  MEOH      HO1            31.2619267600       24.5093723351       16.4101192767  MEOH      3747            0.0000000000
     54982      4439  MEOH      HO2            30.6979721591       26.1100148908       16.2988660739  MEOH      3747            0.0000000000
     54983      4439  MEOH      H1A            28.5954975309       25.4149287271       15.8036193585  MEOH      3747            0.0000000000
     54984      4439  MEOH      H1B            29.1838494989       23.7115589905       15.7977327300  MEOH      3747            0.0000000000
     54985      4439  MEOH      H1C            29.7944040177       24.8785693971       14.5525874877  MEOH      3747            0.0000000000
     54986      4439  MEOH      LP1A           30.7717157562       25.3699028370       16.2844458705  MEOH      3747            0.0000000000
     54987      4439  MEOH      LP1B           30.5007209140       25.0369676079       16.7827078784  MEOH      3747            0.0000000000
     54988      4440  MEOH      C1            -26.3942045296       24.3763303842       27.5970802627  MEOH      3748            0.0000000000
     54989      4440  MEOH      DC1           -26.4046307510       24.3825002896       27.6037827031  MEOH      3748            0.0000000000
     54990      4440  MEOH      O1            -26.3014834766       23.0277637604       28.0646387844  MEOH      3748            0.0000000000
     54991      4440  MEOH      DO1           -26.3064914660       23.0317618508       28.0673659126  MEOH      3748            0.0000000000
     54992      4440  MEOH      HO1           -26.6723675331       22.4610970928       27.3702081511  MEOH      3748            0.0000000000
     54993      4440  MEOH      HO2           -25.3733453196       22.9042755318       28.3180361396  MEOH      3748            0.0000000000
     54994      4440  MEOH      H1A           -25.9796126405       25.0683099037       28.3610167208  MEOH      3748            0.0000000000
     54995      4440  MEOH      H1B           -27.4543315830       24.6358537992       27.3894767267  MEOH      3748            0.0000000000
     54996      4440  MEOH      H1C           -25.8091680963       24.4959945260       26.6602057434  MEOH      3748            0.0000000000
     54997      4440  MEOH      LP1A          -25.9935791380       22.8897359605       27.9716697317  MEOH      3748            0.0000000000
     54998      4440  MEOH      LP1B          -26.5890511969       22.9437707687       28.2456083498  MEOH      3748            0.0000000000
     54999      4441  MEOH      C1              9.4117533668      -17.1892291684       25.9505731032  MEOH      3749            0.0000000000
     55000      4441  MEOH      DC1             9.4142364472      -17.1896195870       25.9489245812  MEOH      3749            0.0000000000
     55001      4441  MEOH      O1              8.5082672135      -16.7653121945       26.9586335798  MEOH      3749            0.0000000000
     55002      4441  MEOH      DO1             8.5137125604      -16.7830050321       26.9675857049  MEOH      3749            0.0000000000
     55003      4441  MEOH      HO1             7.9829704469      -16.0271768110       26.6120510306  MEOH      3749            0.0000000000
     55004      4441  MEOH      HO2             8.0952258679      -17.5595594114       27.3320880018  MEOH      3749            0.0000000000
     55005      4441  MEOH      H1A            10.1616470453      -17.8834149411       26.3865623075  MEOH      3749            0.0000000000
     55006      4441  MEOH      H1B             9.9394500856      -16.3265180656       25.4905875308  MEOH      3749            0.0000000000
     55007      4441  MEOH      H1C             8.8237409970      -17.6913214694       25.1527850522  MEOH      3749            0.0000000000
     55008      4441  MEOH      LP1A            8.2094383740      -16.9460171042       26.9352442595  MEOH      3749            0.0000000000
     55009      4441  MEOH      LP1B            8.6587094164      -16.5211224149       27.1592289314  MEOH      3749            0.0000000000
     55010      4442  MEOH      C1             19.7306394415      -30.2999949285       -8.2089841016  MEOH      3750            0.0000000000
     55011      4442  MEOH      DC1            19.7129485908      -30.2937671553       -8.2031014398  MEOH      3750            0.0000000000
     55012      4442  MEOH      O1             19.8596605950      -30.4380162761       -6.7920119436  MEOH      3750            0.0000000000
     55013      4442  MEOH      DO1            19.8405376312      -30.4191393151       -6.7880741044  MEOH      3750            0.0000000000
     55014      4442  MEOH      HO1            18.9765383903      -30.5357822451       -6.4028628888  MEOH      3750            0.0000000000
     55015      4442  MEOH      HO2            20.4772177293      -31.1769896742       -6.6760744402  MEOH      3750            0.0000000000
     55016      4442  MEOH      H1A            20.7391960850      -30.3473385242       -8.6725497188  MEOH      3750            0.0000000000
     55017      4442  MEOH      H1B            19.2714553879      -29.3206926139       -8.4628304756  MEOH      3750            0.0000000000
     55018      4442  MEOH      H1C            19.1214581988      -31.1307265691       -8.6250419786  MEOH      3750            0.0000000000
     55019      4442  MEOH      LP1A           19.8974411436      -30.7755682801       -6.7075650682  MEOH      3750            0.0000000000
     55020      4442  MEOH      LP1B           19.8548973801      -30.1227376497       -6.6401017745  MEOH      3750            0.0000000000
     55021      4443  MEOH      C1             -7.3569652185      -25.3731873170       36.1387891703  MEOH      3751            0.0000000000
     55022      4443  MEOH      DC1            -7.3476701515      -25.3779864020       36.1227381772  MEOH      3751            0.0000000000
     55023      4443  MEOH      O1             -7.3905560854      -26.0592772484       34.8897418276  MEOH      3751            0.0000000000
     55024      4443  MEOH      DO1            -7.3791435690      -26.0592235275       34.8683888838  MEOH      3751            0.0000000000
     55025      4443  MEOH      HO1            -7.8880518812      -25.5031545277       34.2699632756  MEOH      3751            0.0000000000
     55026      4443  MEOH      HO2            -6.4933343076      -26.3873946750       34.7217179134  MEOH      3751            0.0000000000
     55027      4443  MEOH      H1A            -7.0467889076      -26.0626655348       36.9528723622  MEOH      3751            0.0000000000
     55028      4443  MEOH      H1B            -8.3676481012      -24.9760089780       36.3735027814  MEOH      3751            0.0000000000
     55029      4443  MEOH      H1C            -6.6348059173      -24.5306631289       36.0843838701  MEOH      3751            0.0000000000
     55030      4443  MEOH      LP1A           -7.1115135807      -25.9716609765       34.6974954506  MEOH      3751            0.0000000000
     55031      4443  MEOH      LP1B           -7.6691600631      -26.2707281423       34.8767671182  MEOH      3751            0.0000000000
     55032      4444  MEOH      C1            -11.4695923539      -28.9209013956      -30.9941193668  MEOH      3752            0.0000000000
     55033      4444  MEOH      DC1           -11.4690912444      -28.9323603362      -30.9964336463  MEOH      3752            0.0000000000
     55034      4444  MEOH      O1            -11.2025192202      -27.7908332813      -30.1618455941  MEOH      3752            0.0000000000
     55035      4444  MEOH      DO1           -11.2085832931      -27.8042389046      -30.1639464527  MEOH      3752            0.0000000000
     55036      4444  MEOH      HO1           -11.9318856031      -27.6817951475      -29.5317381707  MEOH      3752            0.0000000000
     55037      4444  MEOH      HO2           -10.2925046959      -27.8983359785      -29.8436998145  MEOH      3752            0.0000000000
     55038      4444  MEOH      H1A           -10.7012781158      -28.9742849657      -31.7948468025  MEOH      3752            0.0000000000
     55039      4444  MEOH      H1B           -12.4737484905      -28.8237214062      -31.4594660150  MEOH      3752            0.0000000000
     55040      4444  MEOH      H1C           -11.4238417728      -29.8557848581      -30.3956038724  MEOH      3752            0.0000000000
     55041      4444  MEOH      LP1A          -11.0192046403      -27.8899233939      -29.8806394164  MEOH      3752            0.0000000000
     55042      4444  MEOH      LP1B          -11.3312022664      -27.5005922897      -30.3091576452  MEOH      3752            0.0000000000
     55043      4445  MEOH      C1            -29.1891955152       20.0029279589       21.5255188163  MEOH      3753            0.0000000000
     55044      4445  MEOH      DC1           -29.1865953390       20.0114034833       21.5412708475  MEOH      3753            0.0000000000
     55045      4445  MEOH      O1            -29.6651118600       18.9495083893       22.3654027679  MEOH      3753            0.0000000000
     55046      4445  MEOH      DO1           -29.6702784018       18.9540276725       22.3758127040  MEOH      3753            0.0000000000
     55047      4445  MEOH      HO1           -29.2138671851       19.0221125668       23.2209767722  MEOH      3753            0.0000000000
     55048      4445  MEOH      HO2           -30.6324926017       18.9679428218       22.2965938087  MEOH      3753            0.0000000000
     55049      4445  MEOH      H1A           -29.5385172011       19.8355851848       20.4842255066  MEOH      3753            0.0000000000
     55050      4445  MEOH      H1B           -28.0784954288       20.0285232576       21.5288652702  MEOH      3753            0.0000000000
     55051      4445  MEOH      H1C           -29.5953141965       20.9733544899       21.8828155631  MEOH      3753            0.0000000000
     55052      4445  MEOH      LP1A          -29.9484124924       19.0555150788       22.5414804027  MEOH      3753            0.0000000000
     55053      4445  MEOH      LP1B          -29.4684081546       18.6633463221       22.3215972478  MEOH      3753            0.0000000000
     55054      4446  MEOH      C1             10.4008672538      -30.1277757546       23.8642077651  MEOH      3754            0.0000000000
     55055      4446  MEOH      DC1            10.3935908719      -30.1327590405       23.8556859438  MEOH      3754            0.0000000000
     55056      4446  MEOH      O1             10.1554242973      -30.9799906972       22.7422190854  MEOH      3754            0.0000000000
     55057      4446  MEOH      DO1            10.1473568236      -30.9781943411       22.7331701729  MEOH      3754            0.0000000000
     55058      4446  MEOH      HO1            10.7153786866      -31.7625409024       22.8645557484  MEOH      3754            0.0000000000
     55059      4446  MEOH      HO2             9.1912693821      -31.0646627029       22.6779077264  MEOH      3754            0.0000000000
     55060      4446  MEOH      H1A             9.9226561659      -29.1368059291       23.7105394160  MEOH      3754            0.0000000000
     55061      4446  MEOH      H1B            11.4925707674      -29.9805097890       24.0084893452  MEOH      3754            0.0000000000
     55062      4446  MEOH      H1C             9.9681248490      -30.5847856302       24.7797387502  MEOH      3754            0.0000000000
     55063      4446  MEOH      LP1A            9.8883906388      -31.1953428259       22.8116199921  MEOH      3754            0.0000000000
     55064      4446  MEOH      LP1B           10.3738804240      -30.8996629275       22.4808297778  MEOH      3754            0.0000000000
     55065      4447  MEOH      C1             26.9966505408       35.4198160958      -36.8736572304  MEOH      3755            0.0000000000
     55066      4447  MEOH      DC1            27.0025875474       35.4265209788      -36.8676333890  MEOH      3755            0.0000000000
     55067      4447  MEOH      O1             28.1081909410       35.4883415883      -35.9788309508  MEOH      3755            0.0000000000
     55068      4447  MEOH      DO1            28.1039534805       35.5031687067      -35.9731671167  MEOH      3755            0.0000000000
     55069      4447  MEOH      HO1            28.0563618205       34.7063234267      -35.4072880065  MEOH      3755            0.0000000000
     55070      4447  MEOH      HO2            28.8890450009       35.5831832952      -36.5464329137  MEOH      3755            0.0000000000
     55071      4447  MEOH      H1A            27.1111195465       36.1839325357      -37.6719954509  MEOH      3755            0.0000000000
     55072      4447  MEOH      H1B            26.0541006673       35.6144668805      -36.3186510967  MEOH      3755            0.0000000000
     55073      4447  MEOH      H1C            26.9493953267       34.4299458420      -37.3758970390  MEOH      3755            0.0000000000
     55074      4447  MEOH      LP1A           28.3861539486       35.3300374948      -36.1208745372  MEOH      3755            0.0000000000
     55075      4447  MEOH      LP1B           28.0198408551       35.6679628019      -35.6917238594  MEOH      3755            0.0000000000
     55076      4448  MEOH      C1             -7.5178538509       17.8731874714      -31.7054847521  MEOH      3756            0.0000000000
     55077      4448  MEOH      DC1            -7.5287382953       17.8981390743      -31.7005637088  MEOH      3756            0.0000000000
     55078      4448  MEOH      O1             -7.8703269476       17.2378354338      -30.4814190452  MEOH      3756            0.0000000000
     55079      4448  MEOH      DO1            -7.8845941214       17.2792131315      -30.4811956863  MEOH      3756            0.0000000000
     55080      4448  MEOH      HO1            -7.1253914349       16.7189634838      -30.1397423246  MEOH      3756            0.0000000000
     55081      4448  MEOH      HO2            -8.4383919381       17.8276414590      -29.9614853762  MEOH      3756            0.0000000000
     55082      4448  MEOH      H1A            -8.4167149766       17.9822863550      -32.3492759535  MEOH      3756            0.0000000000
     55083      4448  MEOH      H1B            -6.7531740304       17.2619365891      -32.2308019240  MEOH      3756            0.0000000000
     55084      4448  MEOH      H1C            -7.0946725384       18.8838738132      -31.5217684013  MEOH      3756            0.0000000000
     55085      4448  MEOH      LP1A           -7.7988618288       17.4493287583      -30.2118577155  MEOH      3756            0.0000000000
     55086      4448  MEOH      LP1B           -8.0115594725       16.9241169837      -30.5457160747  MEOH      3756            0.0000000000
     55087      4449  MEOH      C1             31.2785775137       22.6001756554       -2.3967072579  MEOH      3757            0.0000000000
     55088      4449  MEOH      DC1            31.2808222894       22.5996096461       -2.3915822802  MEOH      3757            0.0000000000
     55089      4449  MEOH      O1             31.5056942743       21.8268279144       -1.2164952627  MEOH      3757            0.0000000000
     55090      4449  MEOH      DO1            31.5046981522       21.8204486212       -1.2180386249  MEOH      3757            0.0000000000
     55091      4449  MEOH      HO1            32.4580654709       21.8505012060       -1.0339338216  MEOH      3757            0.0000000000
     55092      4449  MEOH      HO2            30.8853861802       22.1725202956       -0.5557270386  MEOH      3757            0.0000000000
     55093      4449  MEOH      H1A            30.2011634420       22.5588474628       -2.6646473637  MEOH      3757            0.0000000000
     55094      4449  MEOH      H1B            31.8782111635       22.2046226177       -3.2442320546  MEOH      3757            0.0000000000
     55095      4449  MEOH      H1C            31.5377479493       23.6652026263       -2.2154085085  MEOH      3757            0.0000000000
     55096      4449  MEOH      LP1A           31.4770679662       22.0299656700       -0.9329188413  MEOH      3757            0.0000000000
     55097      4449  MEOH      LP1B           31.5611282330       21.4919053719       -1.3016654846  MEOH      3757            0.0000000000
     55098      4450  MEOH      C1             -0.1328360561       16.6595170041       -5.8420192472  MEOH      3758            0.0000000000
     55099      4450  MEOH      DC1            -0.1273342680       16.6669976010       -5.8388607231  MEOH      3758            0.0000000000
     55100      4450  MEOH      O1             -1.0931797002       16.9972873630       -6.8432268080  MEOH      3758            0.0000000000
     55101      4450  MEOH      DO1            -1.0899699561       17.0071999913       -6.8438975488  MEOH      3758            0.0000000000
     55102      4450  MEOH      HO1            -1.3505736523       16.1688700144       -7.2772464515  MEOH      3758            0.0000000000
     55103      4450  MEOH      HO2            -1.7679309290       17.5213333695       -6.3838940721  MEOH      3758            0.0000000000
     55104      4450  MEOH      H1A             0.2349828044       17.5863719906       -5.3521517935  MEOH      3758            0.0000000000
     55105      4450  MEOH      H1B             0.7312308660       16.1236168890       -6.2898143134  MEOH      3758            0.0000000000
     55106      4450  MEOH      H1C            -0.5957784609       15.9967003228       -5.0799960344  MEOH      3758            0.0000000000
     55107      4450  MEOH      LP1A           -1.4154250366       16.9916651753       -6.7067484793  MEOH      3758            0.0000000000
     55108      4450  MEOH      LP1B           -0.9311172736       17.0706135510       -7.1446551412  MEOH      3758            0.0000000000
     55109      4451  MEOH      C1            -12.6505771852      -13.5016703335       -5.7986338287  MEOH      3759            0.0000000000
     55110      4451  MEOH      DC1           -12.6575660983      -13.4974121251       -5.7783289407  MEOH      3759            0.0000000000
     55111      4451  MEOH      O1            -11.9925334875      -13.3379071997       -7.0533882483  MEOH      3759            0.0000000000
     55112      4451  MEOH      DO1           -12.0069867120      -13.3383273378       -7.0368288511  MEOH      3759            0.0000000000
     55113      4451  MEOH      HO1           -11.2714088489      -12.6948278193       -6.9677835320  MEOH      3759            0.0000000000
     55114      4451  MEOH      HO2           -11.7804493549      -14.2355456401       -7.3536640400  MEOH      3759            0.0000000000
     55115      4451  MEOH      H1A           -13.4835988135      -14.2258661810       -5.9248730524  MEOH      3759            0.0000000000
     55116      4451  MEOH      H1B           -13.0664656238      -12.5303512424       -5.4552724595  MEOH      3759            0.0000000000
     55117      4451  MEOH      H1C           -11.9400629616      -13.9017688794       -5.0440401015  MEOH      3759            0.0000000000
     55118      4451  MEOH      LP1A          -11.7332752191      -13.5710443318       -7.0839206560  MEOH      3759            0.0000000000
     55119      4451  MEOH      LP1B          -12.1484884002      -13.0848994427       -7.2382263939  MEOH      3759            0.0000000000
     55120      4452  MEOH      C1             -3.5438962035      -35.5908788238       22.9685095089  MEOH      3760            0.0000000000
     55121      4452  MEOH      DC1            -3.5399485851      -35.5913569707       22.9758221494  MEOH      3760            0.0000000000
     55122      4452  MEOH      O1             -3.4132910264      -36.8387329181       22.2942368245  MEOH      3760            0.0000000000
     55123      4452  MEOH      DO1            -3.4158452272      -36.8403131347       22.3067385112  MEOH      3760            0.0000000000
     55124      4452  MEOH      HO1            -3.1871034660      -36.6875093536       21.3631779536  MEOH      3760            0.0000000000
     55125      4452  MEOH      HO2            -2.8937347679      -37.4175713840       22.8738119497  MEOH      3760            0.0000000000
     55126      4452  MEOH      H1A            -3.9065828024      -35.7584801631       24.0051816956  MEOH      3760            0.0000000000
     55127      4452  MEOH      H1B            -4.2765647810      -34.9433351332       22.4410581610  MEOH      3760            0.0000000000
     55128      4452  MEOH      H1C            -2.5605074783      -35.0766004731       23.0212863479  MEOH      3760            0.0000000000
     55129      4452  MEOH      LP1A           -3.0838010261      -36.9541898997       22.3188544029  MEOH      3760            0.0000000000
     55130      4452  MEOH      LP1B           -3.7232944998      -36.9385485756       22.1660390049  MEOH      3760            0.0000000000
     55131      4453  MEOH      C1            -25.3571111599      -10.5469582537      -17.3642231561  MEOH      3761            0.0000000000
     55132      4453  MEOH      DC1           -25.3576324917      -10.5495273671      -17.3567555107  MEOH      3761            0.0000000000
     55133      4453  MEOH      O1            -24.1953035671       -9.7937279253      -17.0120477635  MEOH      3761            0.0000000000
     55134      4453  MEOH      DO1           -24.2047320997       -9.7998944971      -17.0112856079  MEOH      3761            0.0000000000
     55135      4453  MEOH      HO1           -24.2905346128       -9.4417344773      -16.1131975755  MEOH      3761            0.0000000000
     55136      4453  MEOH      HO2           -23.4333797140      -10.3461288754      -17.2470482616  MEOH      3761            0.0000000000
     55137      4453  MEOH      H1A           -25.3156137579      -10.8046896658      -18.4441182832  MEOH      3761            0.0000000000
     55138      4453  MEOH      H1B           -26.2767297206       -9.9524789024      -17.1765612164  MEOH      3761            0.0000000000
     55139      4453  MEOH      H1C           -25.3923753333      -11.4972761034      -16.7897900232  MEOH      3761            0.0000000000
     55140      4453  MEOH      LP1A          -23.9561255369      -10.0036845167      -16.8664040213  MEOH      3761            0.0000000000
     55141      4453  MEOH      LP1B          -24.2352193954       -9.4597909448      -17.1089643240  MEOH      3761            0.0000000000
     55142      4454  MEOH      C1              7.4708518677       35.0072382078      -28.0219384459  MEOH      3762            0.0000000000
     55143      4454  MEOH      DC1             7.4760566901       35.0084696982      -28.0174754110  MEOH      3762            0.0000000000
     55144      4454  MEOH      O1              8.6029698607       35.1646508731      -27.1647985662  MEOH      3762            0.0000000000
     55145      4454  MEOH      DO1             8.6065523451       35.1624900357      -27.1660445588  MEOH      3762            0.0000000000
     55146      4454  MEOH      HO1             9.3336925380       34.6556266002      -27.5492964966  MEOH      3762            0.0000000000
     55147      4454  MEOH      HO2             8.6976743904       36.1204203851      -27.0290204617  MEOH      3762            0.0000000000
     55148      4454  MEOH      H1A             6.5935118012       35.5331525195      -27.5883377719  MEOH      3762            0.0000000000
     55149      4454  MEOH      H1B             7.2163228132       33.9329724605      -28.1463935218  MEOH      3762            0.0000000000
     55150      4454  MEOH      H1C             7.6656883802       35.4581884486      -29.0184341128  MEOH      3762            0.0000000000
     55151      4454  MEOH      LP1A            8.7882447264       35.4453899393      -27.2615394615  MEOH      3762            0.0000000000
     55152      4454  MEOH      LP1B            8.6012156033       34.9170079697      -26.9174730418  MEOH      3762            0.0000000000
     55153      4455  MEOH      C1            -31.8119658876       26.7501981791      -26.2463043518  MEOH      3763            0.0000000000
     55154      4455  MEOH      DC1           -31.8056206986       26.7478451680      -26.2503350513  MEOH      3763            0.0000000000
     55155      4455  MEOH      O1            -31.6970189519       25.3567203286      -25.9628792987  MEOH      3763            0.0000000000
     55156      4455  MEOH      DO1           -31.6913217489       25.3562044765      -25.9664107860  MEOH      3763            0.0000000000
     55157      4455  MEOH      HO1           -32.5972780957       24.9998008643      -25.9077252430  MEOH      3763            0.0000000000
     55158      4455  MEOH      HO2           -31.0687550397       25.0042856466      -26.6124747523  MEOH      3763            0.0000000000
     55159      4455  MEOH      H1A           -30.8101005115       27.2248457301      -26.1735274954  MEOH      3763            0.0000000000
     55160      4455  MEOH      H1B           -32.4937688638       27.2435538779      -25.5210003769  MEOH      3763            0.0000000000
     55161      4455  MEOH      H1C           -32.1911162942       26.8943339203      -27.2806112978  MEOH      3763            0.0000000000
     55162      4455  MEOH      LP1A          -31.6756075473       25.1752181975      -26.2613730645  MEOH      3763            0.0000000000
     55163      4455  MEOH      LP1B          -31.6876997772       25.3053231997      -25.6167991229  MEOH      3763            0.0000000000
     55164      4456  MEOH      C1            -12.6641384023        7.5480102354      -36.9964219668  MEOH      3764            0.0000000000
     55165      4456  MEOH      DC1           -12.6419546282        7.5561223272      -37.0046621785  MEOH      3764            0.0000000000
     55166      4456  MEOH      O1            -14.0867828570        7.7536583359      -36.9909798911  MEOH      3764            0.0000000000
     55167      4456  MEOH      DO1           -14.0707683024        7.7562278392      -37.0030453443  MEOH      3764            0.0000000000
     55168      4456  MEOH      HO1           -14.5120268357        6.9981214935      -36.5559722608  MEOH      3764            0.0000000000
     55169      4456  MEOH      HO2           -14.2330020973        8.6350582553      -36.6132840919  MEOH      3764            0.0000000000
     55170      4456  MEOH      H1A           -12.1556554326        8.4679600029      -37.3562253788  MEOH      3764            0.0000000000
     55171      4456  MEOH      H1B           -12.3803830527        6.7041581813      -37.6610403628  MEOH      3764            0.0000000000
     55172      4456  MEOH      H1C           -12.2864002055        7.2987079061      -35.9817874491  MEOH      3764            0.0000000000
     55173      4456  MEOH      LP1A          -14.1812166385        7.9295001405      -36.7034700293  MEOH      3764            0.0000000000
     55174      4456  MEOH      LP1B          -14.2278717248        7.6220832668      -37.2830105960  MEOH      3764            0.0000000000
     55175      4457  MEOH      C1            -23.6781759681       31.7514140597       -3.1763683436  MEOH      3765            0.0000000000
     55176      4457  MEOH      DC1           -23.6843027053       31.7617016220       -3.1625493940  MEOH      3765            0.0000000000
     55177      4457  MEOH      O1            -23.5687343407       31.6998452268       -1.7504370201  MEOH      3765            0.0000000000
     55178      4457  MEOH      DO1           -23.5740319685       31.7084201187       -1.7347382923  MEOH      3765            0.0000000000
     55179      4457  MEOH      HO1           -24.4181374355       32.0060286387       -1.3959428710  MEOH      3765            0.0000000000
     55180      4457  MEOH      HO2           -23.2566992743       30.8036624974       -1.5494628107  MEOH      3765            0.0000000000
     55181      4457  MEOH      H1A           -22.7199470246       31.4314934797       -3.6387200659  MEOH      3765            0.0000000000
     55182      4457  MEOH      H1B           -23.9112508222       32.7863766373       -3.5062919338  MEOH      3765            0.0000000000
     55183      4457  MEOH      H1C           -24.4795134006       31.0652149495       -3.5246643422  MEOH      3765            0.0000000000
     55184      4457  MEOH      LP1A          -23.6666532808       31.3845712617       -1.6341863939  MEOH      3765            0.0000000000
     55185      4457  MEOH      LP1B          -23.4417538305       32.0025869865       -1.6290970970  MEOH      3765            0.0000000000
