*~~~~~~~~~~~~~~~~~~~~~~~~~~~~~~~~~~~~~~~~~~~~~~~~~~~~~~~~~~~~~~~~~~~~~~~
*~ MINIMIZATION OF PACKMOL STRUCTURE
*~~~~~~~~~~~~~~~~~~~~~~~~~~~~~~~~~~~~~~~~~~~~~~~~~~~~~~~~~~~~~~~~~~~~~~~
*  DATE:     1/13/23     17: 4: 0      CREATED BY USER: marta
*
      2700  EXT
         1         1  MEOH2     C1              7.3738455756        9.6900627354       -3.6502271553  MEOH2     1               0.0000000000
         2         1  MEOH2     DC1             7.3659742072        9.6933980793       -3.6890932355  MEOH2     1               0.0000000000
         3         1  MEOH2     O1              6.9604741060        8.3020543211       -3.4391005827  MEOH2     1               0.0000000000
         4         1  MEOH2     DO1             6.9241725463        8.3110340091       -3.5006883921  MEOH2     1               0.0000000000
         5         1  MEOH2     HO1             7.5983668108        7.6215782740       -3.7054560729  MEOH2     1               0.0000000000
         6         1  MEOH2     HO2             6.6351199019        8.3001786228       -2.5252947369  MEOH2     1               0.0000000000
         7         1  MEOH2     H1A             6.5529163971       10.3666808553       -3.3299394650  MEOH2     1               0.0000000000
         8         1  MEOH2     H1B             7.6067923567        9.9511053116       -4.7047002800  MEOH2     1               0.0000000000
         9         1  MEOH2     H1C             8.2193370854        9.9848367943       -2.9925240599  MEOH2     1               0.0000000000
        10         1  MEOH2     LP1A            7.0540848634        8.1966822660       -3.1187355470  MEOH2     1               0.0000000000
        11         1  MEOH2     LP1B            6.7892475173        8.1840058917       -3.7206072853  MEOH2     1               0.0000000000
        12         2  MEOH2     C1             -3.4042588031       -1.8214122225        9.7560149674  MEOH2     2               0.0000000000
        13         2  MEOH2     DC1            -3.4263913839       -1.7984462338        9.7674270717  MEOH2     2               0.0000000000
        14         2  MEOH2     O1             -3.4301703506       -0.4223926945        9.5071336206  MEOH2     2               0.0000000000
        15         2  MEOH2     DO1            -3.4409321845       -0.3960374949        9.5159181385  MEOH2     2               0.0000000000
        16         2  MEOH2     HO1            -3.6687491581       -0.3080198994        8.5739139160  MEOH2     2               0.0000000000
        17         2  MEOH2     HO2            -2.6011175578       -0.0455676536        9.8411610994  MEOH2     2               0.0000000000
        18         2  MEOH2     H1A            -2.5467037413       -2.0996086523       10.4052661232  MEOH2     2               0.0000000000
        19         2  MEOH2     H1B            -3.2435527493       -2.3900208437        8.8151755547  MEOH2     2               0.0000000000
        20         2  MEOH2     H1C            -4.3632524803       -2.1815472863       10.1860787578  MEOH2     2               0.0000000000
        21         2  MEOH2     LP1A           -3.7491326364       -0.2947867099        9.5740647266  MEOH2     2               0.0000000000
        22         2  MEOH2     LP1B           -3.1126867704       -0.3123266690        9.4092068811  MEOH2     2               0.0000000000
        23         3  MEOH2     C1              2.9756175533        5.5049550087        0.4891075398  MEOH2     3               0.0000000000
        24         3  MEOH2     DC1             2.9710117793        5.4883879940        0.4922786017  MEOH2     3               0.0000000000
        25         3  MEOH2     O1              3.9583436610        4.8472474584       -0.3357356722  MEOH2     3               0.0000000000
        26         3  MEOH2     DO1             3.9785765040        4.8179968979       -0.3094047397  MEOH2     3               0.0000000000
        27         3  MEOH2     HO1             4.6662430158        5.4885995378       -0.5043951336  MEOH2     3               0.0000000000
        28         3  MEOH2     HO2             3.4821097941        4.5616981148       -1.1310738876  MEOH2     3               0.0000000000
        29         3  MEOH2     H1A             1.9960366889        5.6063370447       -0.0251531066  MEOH2     3               0.0000000000
        30         3  MEOH2     H1B             3.2858445786        6.5434492242        0.7332590486  MEOH2     3               0.0000000000
        31         3  MEOH2     H1C             2.8106646799        4.9921868282        1.4607969678  MEOH2     3               0.0000000000
        32         3  MEOH2     LP1A            4.1942594624        4.6849438339       -0.1344864035  MEOH2     3               0.0000000000
        33         3  MEOH2     LP1B            3.8792647308        4.8907716454       -0.6738956461  MEOH2     3               0.0000000000
        34         4  MEOH2     C1             -6.3545204913       -5.3100605260       -0.4760648079  MEOH2     4               0.0000000000
        35         4  MEOH2     DC1            -6.3319756919       -5.2849980929       -0.4904447562  MEOH2     4               0.0000000000
        36         4  MEOH2     O1             -6.3566441593       -5.4185982285        0.9715307798  MEOH2     4               0.0000000000
        37         4  MEOH2     DO1            -6.2863519831       -5.3701853395        0.9844060236  MEOH2     4               0.0000000000
        38         4  MEOH2     HO1            -6.7791538797       -4.6310705628        1.3486059883  MEOH2     4               0.0000000000
        39         4  MEOH2     HO2            -6.9013152636       -6.2067764903        1.1232160325  MEOH2     4               0.0000000000
        40         4  MEOH2     H1A            -6.0623945663       -6.2951926277       -0.8985552650  MEOH2     4               0.0000000000
        41         4  MEOH2     H1B            -5.7133592460       -4.5051142490       -0.8947469660  MEOH2     4               0.0000000000
        42         4  MEOH2     H1C            -7.3877433727       -5.1955946734       -0.8680712467  MEOH2     4               0.0000000000
        43         4  MEOH2     LP1A           -6.6460743876       -5.5836083442        1.0787772466  MEOH2     4               0.0000000000
        44         4  MEOH2     LP1B           -6.0622775822       -5.2816508965        1.1022738354  MEOH2     4               0.0000000000
        45         5  MEOH2     C1             -1.5461732137       -9.5618973073       -7.8115607248  MEOH2     5               0.0000000000
        46         5  MEOH2     DC1            -1.5875282879       -9.5705129799       -7.7985018688  MEOH2     5               0.0000000000
        47         5  MEOH2     O1             -1.0050420534       -9.6555707130       -9.1541329491  MEOH2     5               0.0000000000
        48         5  MEOH2     DO1            -1.0385653571       -9.6930341200       -9.1342479990  MEOH2     5               0.0000000000
        49         5  MEOH2     HO1            -1.1536903531       -8.8132733847       -9.6116686257  MEOH2     5               0.0000000000
        50         5  MEOH2     HO2            -0.0368756462       -9.6606663237       -9.0947372881  MEOH2     5               0.0000000000
        51         5  MEOH2     H1A            -0.9871751172      -10.1440828698       -7.0480804692  MEOH2     5               0.0000000000
        52         5  MEOH2     H1B            -2.5810309883       -9.9659311958       -7.7994361957  MEOH2     5               0.0000000000
        53         5  MEOH2     H1C            -1.5742417776       -8.5010279995       -7.4827910977  MEOH2     5               0.0000000000
        54         5  MEOH2     LP1A           -0.6688434188       -9.5582562922       -9.1547507046  MEOH2     5               0.0000000000
        55         5  MEOH2     LP1B           -1.2486043345       -9.7791336896       -9.3730155798  MEOH2     5               0.0000000000
        56         6  MEOH2     C1             -9.5710427678       -9.3233840313       -9.2295262496  MEOH2     6               0.0000000000
        57         6  MEOH2     DC1            -9.5260929001       -9.3065578103       -9.2272225360  MEOH2     6               0.0000000000
        58         6  MEOH2     O1             -8.1909304655       -9.2065743301       -9.6806613243  MEOH2     6               0.0000000000
        59         6  MEOH2     DO1            -8.1421591065       -9.1834064262       -9.6488479147  MEOH2     6               0.0000000000
        60         6  MEOH2     HO1            -7.9093774807      -10.1228833506       -9.8290044934  MEOH2     6               0.0000000000
        61         6  MEOH2     HO2            -8.2144442026       -8.6679182428      -10.4870090935  MEOH2     6               0.0000000000
        62         6  MEOH2     H1A           -10.0037934370       -8.3600831505       -8.8844186266  MEOH2     6               0.0000000000
        63         6  MEOH2     H1B            -9.6918387039      -10.0480241770       -8.3960839887  MEOH2     6               0.0000000000
        64         6  MEOH2     H1C           -10.2303744491       -9.6902836465      -10.0449938503  MEOH2     6               0.0000000000
        65         6  MEOH2     LP1A           -8.1812838619       -9.1726004082      -10.0288749307  MEOH2     6               0.0000000000
        66         6  MEOH2     LP1B           -7.9744157394       -9.2099253023       -9.4056883358  MEOH2     6               0.0000000000
        67         7  MEOH2     C1             -1.2601193561       -9.6585392924        6.2529581923  MEOH2     7               0.0000000000
        68         7  MEOH2     DC1            -1.2942354285       -9.6855627950        6.2714147668  MEOH2     7               0.0000000000
        69         7  MEOH2     O1             -1.2410415136       -8.2517728820        5.9051966327  MEOH2     7               0.0000000000
        70         7  MEOH2     DO1            -1.3319403363       -8.2789289620        5.8871343673  MEOH2     7               0.0000000000
        71         7  MEOH2     HO1            -0.7839571432       -7.7301407921        6.5833366191  MEOH2     7               0.0000000000
        72         7  MEOH2     HO2            -0.4410096319       -8.1521004971        5.3658318169  MEOH2     7               0.0000000000
        73         7  MEOH2     H1A            -1.8342730700      -10.2240710432        5.4882083293  MEOH2     7               0.0000000000
        74         7  MEOH2     H1B            -1.7131611203       -9.8270981969        7.2532891656  MEOH2     7               0.0000000000
        75         7  MEOH2     H1C            -0.2390634767      -10.0964258368        6.2575697594  MEOH2     7               0.0000000000
        76         7  MEOH2     LP1A           -0.9576008721       -8.1798381543        5.7128771129  MEOH2     7               0.0000000000
        77         7  MEOH2     LP1B           -1.5270715249       -8.0936222754        6.0303973449  MEOH2     7               0.0000000000
        78         8  MEOH2     C1             -4.8043875726        4.7591571207        3.8129001354  MEOH2     8               0.0000000000
        79         8  MEOH2     DC1            -4.7965648857        4.7032839265        3.7197783377  MEOH2     8               0.0000000000
        80         8  MEOH2     O1             -5.9509192429        5.3244385522        3.1253893949  MEOH2     8               0.0000000000
        81         8  MEOH2     DO1            -5.9453342952        5.2568589723        3.0364085667  MEOH2     8               0.0000000000
        82         8  MEOH2     HO1            -6.4744485270        5.6148587017        3.8885887311  MEOH2     8               0.0000000000
        83         8  MEOH2     HO2            -5.7765110821        6.2643132629        2.9607160157  MEOH2     8               0.0000000000
        84         8  MEOH2     H1A            -4.3141778458        3.8448052917        3.4154379898  MEOH2     8               0.0000000000
        85         8  MEOH2     H1B            -5.1733970626        4.2012519970        4.6999710850  MEOH2     8               0.0000000000
        86         8  MEOH2     H1C            -4.0919684428        5.4824476705        4.2641547933  MEOH2     8               0.0000000000
        87         8  MEOH2     LP1A           -5.8935320682        5.6624206575        3.0548570712  MEOH2     8               0.0000000000
        88         8  MEOH2     LP1B           -6.1927019085        5.0769821194        3.0724133960  MEOH2     8               0.0000000000
        89         9  MEOH2     C1             -3.7847893409        0.2882948102       -4.0480937478  MEOH2     9               0.0000000000
        90         9  MEOH2     DC1            -3.7688347983        0.2125783660       -3.9594747726  MEOH2     9               0.0000000000
        91         9  MEOH2     O1             -3.1772200024       -0.3824751468       -2.8994403768  MEOH2     9               0.0000000000
        92         9  MEOH2     DO1            -3.6145655367        0.1791781973       -1.9769122143  MEOH2     9               0.0000000000
        93         9  MEOH2     HO1            -3.6207914196       -1.2377326681       -2.7868394370  MEOH2     9               0.0000000000
        94         9  MEOH2     HO2            -2.2309372584       -0.4455335973       -3.1030886031  MEOH2     9               0.0000000000
        95         9  MEOH2     H1A            -2.9308397043        0.5091769415       -4.7235951201  MEOH2     9               0.0000000000
        96         9  MEOH2     H1B            -4.4156956828        1.1966993796       -3.9428353693  MEOH2     9               0.0000000000
        97         9  MEOH2     H1C            -4.3200001208       -0.4240308330       -4.7117673122  MEOH2     9               0.0000000000
        98         9  MEOH2     LP1A           -2.9031623532       -0.5736242031       -3.0036250357  MEOH2     9               0.0000000000
        99         9  MEOH2     LP1B           -3.3447629822       -0.2922030548       -2.6057052932  MEOH2     9               0.0000000000
       100        10  MEOH2     C1              2.5934983373       -9.4091496465       -3.0459409987  MEOH2     10              0.0000000000
       101        10  MEOH2     DC1             2.5236440412       -9.4440974981       -3.1148768829  MEOH2     10              0.0000000000
       102        10  MEOH2     O1              3.6219639967       -9.1386992245       -2.0760912893  MEOH2     10              0.0000000000
       103        10  MEOH2     DO1             3.5270780838       -9.1698175029       -2.1062217213  MEOH2     10              0.0000000000
       104        10  MEOH2     HO1             3.9140227634       -8.2185479964       -1.9816275674  MEOH2     10              0.0000000000
       105        10  MEOH2     HO2             4.4015540728       -9.7146277721       -2.0380699566  MEOH2     10              0.0000000000
       106        10  MEOH2     H1A             2.9506140890      -10.0890171561       -3.8487918632  MEOH2     10              0.0000000000
       107        10  MEOH2     H1B             2.2676496610       -8.4392972915       -3.4789883984  MEOH2     10              0.0000000000
       108        10  MEOH2     H1C             1.7203816713       -9.8451159502       -2.5149780341  MEOH2     10              0.0000000000
       109        10  MEOH2     LP1A            3.4778490263       -9.0724364894       -1.7640974989  MEOH2     10              0.0000000000
       110        10  MEOH2     LP1B            3.9375061980       -9.1711171610       -2.2240176109  MEOH2     10              0.0000000000
       111        11  MEOH2     C1             -3.1751393956       -6.9843083141        2.8213859436  MEOH2     11              0.0000000000
       112        11  MEOH2     DC1            -3.1642632868       -6.9886150565        2.8199113942  MEOH2     11              0.0000000000
       113        11  MEOH2     O1             -3.5445683938       -5.6325477173        2.5111627210  MEOH2     11              0.0000000000
       114        11  MEOH2     DO1            -3.5301354298       -5.6205923752        2.5229852844  MEOH2     11              0.0000000000
       115        11  MEOH2     HO1            -2.8576464673       -5.2266445697        1.9595460938  MEOH2     11              0.0000000000
       116        11  MEOH2     HO2            -4.4657380634       -5.6449495287        2.2075303172  MEOH2     11              0.0000000000
       117        11  MEOH2     H1A            -3.9934974269       -7.5009905131        3.3669596216  MEOH2     11              0.0000000000
       118        11  MEOH2     H1B            -2.2648676690       -7.0363013173        3.4562269576  MEOH2     11              0.0000000000
       119        11  MEOH2     H1C            -2.9637831887       -7.5517171246        1.8898835027  MEOH2     11              0.0000000000
       120        11  MEOH2     LP1A           -3.7355640146       -5.6249310317        2.2179688279  MEOH2     11              0.0000000000
       121        11  MEOH2     LP1B           -3.4248739342       -5.4159358824        2.7586552447  MEOH2     11              0.0000000000
       122        12  MEOH2     C1             -7.1065665312        2.3673290260        0.0418059180  MEOH2     12              0.0000000000
       123        12  MEOH2     DC1            -7.0943825260        2.3727728422        0.0131585127  MEOH2     12              0.0000000000
       124        12  MEOH2     O1             -5.8306932525        1.9805587270       -0.5294695937  MEOH2     12              0.0000000000
       125        12  MEOH2     DO1            -5.8856089588        2.0061873561       -0.5806370330  MEOH2     12              0.0000000000
       126        12  MEOH2     HO1            -5.6588496165        1.0259281292       -0.5365538530  MEOH2     12              0.0000000000
       127        12  MEOH2     HO2            -5.0894678462        2.3211299489       -0.0045923320  MEOH2     12              0.0000000000
       128        12  MEOH2     H1A            -6.9916408045        2.9897904095        0.9548529627  MEOH2     12              0.0000000000
       129        12  MEOH2     H1B            -7.7636643097        1.5170535693        0.3238966119  MEOH2     12              0.0000000000
       130        12  MEOH2     H1C            -7.7256101581        2.9814208147       -0.6466686734  MEOH2     12              0.0000000000
       131        12  MEOH2     LP1A           -5.8640015221        1.9311868400       -0.8743651953  MEOH2     12              0.0000000000
       132        12  MEOH2     LP1B           -5.5843400053        1.9771246380       -0.2808769860  MEOH2     12              0.0000000000
       133        13  MEOH2     C1              0.2975413258       -9.1163105118        9.1834738126  MEOH2     13              0.0000000000
       134        13  MEOH2     DC1             0.2717486792       -9.1312804712        9.1872291478  MEOH2     13              0.0000000000
       135        13  MEOH2     O1             -1.0260687719       -8.6267771491        9.3719995675  MEOH2     13              0.0000000000
       136        13  MEOH2     DO1            -1.0555413418       -8.6592894234        9.3556098444  MEOH2     13              0.0000000000
       137        13  MEOH2     HO1            -1.5416954873       -9.2770543049        9.8741635955  MEOH2     13              0.0000000000
       138        13  MEOH2     HO2            -0.9678931368       -7.7140743834        9.6952475503  MEOH2     13              0.0000000000
       139        13  MEOH2     H1A             0.9379545988       -8.2767408398        8.8380543468  MEOH2     13              0.0000000000
       140        13  MEOH2     H1B             0.3522944654       -9.8973990652        8.3952963158  MEOH2     13              0.0000000000
       141        13  MEOH2     H1C             0.7396660497       -9.5460425651       10.1076908287  MEOH2     13              0.0000000000
       142        13  MEOH2     LP1A           -1.0429921200       -8.4375892878        9.6659749975  MEOH2     13              0.0000000000
       143        13  MEOH2     LP1B           -1.2290059588       -8.7240978606        9.1039600606  MEOH2     13              0.0000000000
       144        14  MEOH2     C1              4.1944993108       -3.9100902819       -0.0386676591  MEOH2     14              0.0000000000
       145        14  MEOH2     DC1             4.0899036417       -3.8348531921       -0.0022557727  MEOH2     14              0.0000000000
       146        14  MEOH2     O1              4.7205650185       -3.4972296825       -1.3386631188  MEOH2     14              0.0000000000
       147        14  MEOH2     DO1             4.6420580708       -3.4793334381       -1.3261707607  MEOH2     14              0.0000000000
       148        14  MEOH2     HO1             5.4102682635       -4.1213828693       -1.6136944521  MEOH2     14              0.0000000000
       149        14  MEOH2     HO2             4.3504643029       -2.8133668994       -1.9185399640  MEOH2     14              0.0000000000
       150        14  MEOH2     H1A             4.1287132710       -3.1361207360        0.7556649799  MEOH2     14              0.0000000000
       151        14  MEOH2     H1B             5.0373755059       -4.3891810271        0.5038752219  MEOH2     14              0.0000000000
       152        14  MEOH2     H1C             3.4470467851       -4.7294687391       -0.1038954679  MEOH2     14              0.0000000000
       153        14  MEOH2     LP1A            4.5331267858       -3.6434206477       -1.5955582543  MEOH2     14              0.0000000000
       154        14  MEOH2     LP1B            4.9869465642       -3.2744919035       -1.2947455380  MEOH2     14              0.0000000000
       155        15  MEOH2     C1              9.2322328983       -4.0923196384       -9.4021883501  MEOH2     15              0.0000000000
       156        15  MEOH2     DC1             9.2729239268       -4.0906850778       -9.4079045980  MEOH2     15              0.0000000000
       157        15  MEOH2     O1              8.6369109470       -5.4182042580       -9.2536494407  MEOH2     15              0.0000000000
       158        15  MEOH2     DO1             8.7252929193       -5.4715655977       -9.2622166707  MEOH2     15              0.0000000000
       159        15  MEOH2     HO1             8.1403916094       -5.3975383527       -8.4206179474  MEOH2     15              0.0000000000
       160        15  MEOH2     HO2             7.8427346757       -5.3080593731       -9.7995909714  MEOH2     15              0.0000000000
       161        15  MEOH2     H1A            10.0894049644       -4.0780010261      -10.1088509480  MEOH2     15              0.0000000000
       162        15  MEOH2     H1B             9.5433881030       -3.6521208516       -8.4307314717  MEOH2     15              0.0000000000
       163        15  MEOH2     H1C             8.4716262221       -3.3780016183       -9.7836962144  MEOH2     15              0.0000000000
       164        15  MEOH2     LP1A            8.3230777926       -5.4265303910       -9.4083731516  MEOH2     15              0.0000000000
       165        15  MEOH2     LP1B            8.8579554470       -5.6304076612       -9.0845073564  MEOH2     15              0.0000000000
       166        16  MEOH2     C1             -9.6340024940        4.2751752864       -6.2789542790  MEOH2     16              0.0000000000
       167        16  MEOH2     DC1            -9.6515214730        4.2013814206       -6.2940876216  MEOH2     16              0.0000000000
       168        16  MEOH2     O1             -8.1787847182        4.3140454692       -6.4312674860  MEOH2     16              0.0000000000
       169        16  MEOH2     DO1            -8.2057277657        4.2219210057       -6.4337542793  MEOH2     16              0.0000000000
       170        16  MEOH2     HO1            -7.8007159755        4.2244073867       -7.3200470087  MEOH2     16              0.0000000000
       171        16  MEOH2     HO2            -7.9385697565        5.1660734618       -6.0347260963  MEOH2     16              0.0000000000
       172        16  MEOH2     H1A            -9.8898629836        4.4674199573       -5.2150471411  MEOH2     16              0.0000000000
       173        16  MEOH2     H1B           -10.1689688246        3.3694076873       -6.6363295477  MEOH2     16              0.0000000000
       174        16  MEOH2     H1C           -10.0715802995        5.1812917440       -6.7499103593  MEOH2     16              0.0000000000
       175        16  MEOH2     LP1A           -8.0719239643        4.6442655215       -6.4763839614  MEOH2     16              0.0000000000
       176        16  MEOH2     LP1B           -8.0464660429        3.9915599713       -6.3997258966  MEOH2     16              0.0000000000
       177        17  MEOH2     C1             -2.4457291121       -2.8275428155        5.6888527182  MEOH2     17              0.0000000000
       178        17  MEOH2     DC1            -2.4591402915       -2.8382008982        5.6472338954  MEOH2     17              0.0000000000
       179        17  MEOH2     O1             -1.8268575436       -2.6934569395        4.4318848649  MEOH2     17              0.0000000000
       180        17  MEOH2     DO1            -1.8563637796       -2.7008404755        4.3881183827  MEOH2     17              0.0000000000
       181        17  MEOH2     HO1            -1.0087494899       -2.2351119766        4.6799153234  MEOH2     17              0.0000000000
       182        17  MEOH2     HO2            -1.6176688441       -3.5834931416        4.1078854093  MEOH2     17              0.0000000000
       183        17  MEOH2     H1A            -3.5388558414       -3.0075394793        5.6052096907  MEOH2     17              0.0000000000
       184        17  MEOH2     H1B            -2.3345371343       -1.9290047672        6.3327368074  MEOH2     17              0.0000000000
       185        17  MEOH2     H1C            -1.9401230145       -3.6037417722        6.3022030700  MEOH2     17              0.0000000000
       186        17  MEOH2     LP1A           -1.6292369726       -2.9745161528        4.3651628404  MEOH2     17              0.0000000000
       187        17  MEOH2     LP1B           -1.9280994669       -2.3949029388        4.2798467722  MEOH2     17              0.0000000000
       188        18  MEOH2     C1             -6.9369796125       -3.8630324729        6.7552879701  MEOH2     18              0.0000000000
       189        18  MEOH2     DC1            -6.9613749984       -3.8564618421        6.7190406594  MEOH2     18              0.0000000000
       190        18  MEOH2     O1             -6.7656457649       -3.6975411651        8.1853773238  MEOH2     18              0.0000000000
       191        18  MEOH2     DO1            -6.8250350632       -3.7459181853        8.1801270725  MEOH2     18              0.0000000000
       192        18  MEOH2     HO1            -5.8068859688       -3.6016921607        8.2971477259  MEOH2     18              0.0000000000
       193        18  MEOH2     HO2            -7.1636985368       -2.8547489841        8.4539947690  MEOH2     18              0.0000000000
       194        18  MEOH2     H1A            -7.8718912374       -4.3808811801        6.4518180860  MEOH2     18              0.0000000000
       195        18  MEOH2     H1B            -6.0662066873       -4.4347191012        6.3689592075  MEOH2     18              0.0000000000
       196        18  MEOH2     H1C            -6.9159967490       -2.9043094470        6.1942791637  MEOH2     18              0.0000000000
       197        18  MEOH2     LP1A           -6.7857516085       -3.3584979345        8.2699080450  MEOH2     18              0.0000000000
       198        18  MEOH2     LP1B           -6.7286021476       -4.0100982603        8.3384649871  MEOH2     18              0.0000000000
       199        19  MEOH2     C1              3.9623925456        6.6215307371       -9.2261315905  MEOH2     19              0.0000000000
       200        19  MEOH2     DC1             3.9805165274        6.7083087902       -9.1957484302  MEOH2     19              0.0000000000
       201        19  MEOH2     O1              5.1913156157        7.3498531630       -9.3316496991  MEOH2     19              0.0000000000
       202        19  MEOH2     DO1             5.1837253890        7.4025790053       -9.3110080928  MEOH2     19              0.0000000000
       203        19  MEOH2     HO1             5.7098315687        7.2367520809       -8.5197079815  MEOH2     19              0.0000000000
       204        19  MEOH2     HO2             5.6178796883        6.9893960605      -10.1247535822  MEOH2     19              0.0000000000
       205        19  MEOH2     H1A             3.4095417003        6.5440638685      -10.1866917550  MEOH2     19              0.0000000000
       206        19  MEOH2     H1B             3.2525161185        6.9655271205       -8.4437870711  MEOH2     19              0.0000000000
       207        19  MEOH2     H1C             4.1545142217        5.5496543781       -9.0059241142  MEOH2     19              0.0000000000
       208        19  MEOH2     LP1A            5.4382116806        7.1478311309       -9.4756268906  MEOH2     19              0.0000000000
       209        19  MEOH2     LP1B            5.1468342594        7.6771223469       -9.2158209884  MEOH2     19              0.0000000000
       210        20  MEOH2     C1              5.2130279813        2.6420190856        4.8052939122  MEOH2     20              0.0000000000
       211        20  MEOH2     DC1             5.1935978477        2.6566532263        4.7777191504  MEOH2     20              0.0000000000
       212        20  MEOH2     O1              5.3307285609        3.7310921031        3.9297009252  MEOH2     20              0.0000000000
       213        20  MEOH2     DO1             5.3174919292        3.7434152114        3.9236744933  MEOH2     20              0.0000000000
       214        20  MEOH2     HO1             6.2617698809        3.8962715258        3.7134191208  MEOH2     20              0.0000000000
       215        20  MEOH2     HO2             4.6923898506        3.5958599807        3.2119711953  MEOH2     20              0.0000000000
       216        20  MEOH2     H1A             4.1807359752        2.2455013088        4.9123820402  MEOH2     20              0.0000000000
       217        20  MEOH2     H1B             5.5753345279        2.9341623884        5.8141086909  MEOH2     20              0.0000000000
       218        20  MEOH2     H1C             5.7977799849        1.7720044148        4.4372442294  MEOH2     20              0.0000000000
       219        20  MEOH2     LP1A            5.3115889083        3.6207128568        3.5981136883  MEOH2     20              0.0000000000
       220        20  MEOH2     LP1B            5.3585523992        4.0286656389        4.1118432455  MEOH2     20              0.0000000000
       221        21  MEOH2     C1             -4.1575652690        1.3713335108        3.0771607890  MEOH2     21              0.0000000000
       222        21  MEOH2     DC1            -4.1855269631        1.3753542932        3.0259870442  MEOH2     21              0.0000000000
       223        21  MEOH2     O1             -2.8799712632        2.0691818544        2.9707182088  MEOH2     21              0.0000000000
       224        21  MEOH2     DO1            -2.9418690256        2.1132824484        2.8668699312  MEOH2     21              0.0000000000
       225        21  MEOH2     HO1            -2.1921321587        1.3918482334        3.0655682618  MEOH2     21              0.0000000000
       226        21  MEOH2     HO2            -2.6998445352        2.5334728160        3.8031173108  MEOH2     21              0.0000000000
       227        21  MEOH2     H1A            -4.7054671570        1.6783188823        3.9936129180  MEOH2     21              0.0000000000
       228        21  MEOH2     H1B            -3.9889790882        0.2876805875        3.2549135424  MEOH2     21              0.0000000000
       229        21  MEOH2     H1C            -4.8192417944        1.4745919884        2.1906830031  MEOH2     21              0.0000000000
       230        21  MEOH2     LP1A           -2.7793991834        2.0843608075        2.6358229175  MEOH2     21              0.0000000000
       231        21  MEOH2     LP1B           -2.7765416341        2.1784137131        3.2867414878  MEOH2     21              0.0000000000
       232        22  MEOH2     C1              1.5792528943       -1.2851052517        6.2756855864  MEOH2     22              0.0000000000
       233        22  MEOH2     DC1             1.5107050958       -1.3073909419        6.2593622552  MEOH2     22              0.0000000000
       234        22  MEOH2     O1              0.4092159106       -2.0452724234        6.2058549037  MEOH2     22              0.0000000000
       235        22  MEOH2     DO1             0.3422312505       -2.0674562868        6.0860982861  MEOH2     22              0.0000000000
       236        22  MEOH2     HO1             0.7288453906       -2.7836300607        6.7476712889  MEOH2     22              0.0000000000
       237        22  MEOH2     HO2            -0.1997885256       -1.6368489085        6.8408382340  MEOH2     22              0.0000000000
       238        22  MEOH2     H1A             1.7071018252       -0.6131046488        5.4002480721  MEOH2     22              0.0000000000
       239        22  MEOH2     H1B             2.4999493156       -1.9027393014        6.3475693868  MEOH2     22              0.0000000000
       240        22  MEOH2     H1C             1.5417713394       -0.6260244095        7.1692898487  MEOH2     22              0.0000000000
       241        22  MEOH2     LP1A            0.1933743949       -1.9570276274        6.4668631336  MEOH2     22              0.0000000000
       242        22  MEOH2     LP1B            0.4196722233       -2.2556901145        5.9263641869  MEOH2     22              0.0000000000
       243        23  MEOH2     C1              3.2272509230       -9.7844188551       -6.9804858124  MEOH2     23              0.0000000000
       244        23  MEOH2     DC1             3.1746892055       -9.8074079686       -7.0288619645  MEOH2     23              0.0000000000
       245        23  MEOH2     O1              2.7067888836       -9.7533617710       -8.3330800893  MEOH2     23              0.0000000000
       246        23  MEOH2     DO1             2.6711978174       -9.7706997529       -8.3670260618  MEOH2     23              0.0000000000
       247        23  MEOH2     HO1             1.7511350147       -9.6149691889       -8.2410302266  MEOH2     23              0.0000000000
       248        23  MEOH2     HO2             3.1819822791       -9.0414010430       -8.7893729326  MEOH2     23              0.0000000000
       249        23  MEOH2     H1A             4.3077596603      -10.0398070020       -6.9405012572  MEOH2     23              0.0000000000
       250        23  MEOH2     H1B             2.7207804193      -10.4697228490       -6.2676274355  MEOH2     23              0.0000000000
       251        23  MEOH2     H1C             3.1663743424       -8.7793517146       -6.5109593625  MEOH2     23              0.0000000000
       252        23  MEOH2     LP1A            2.7152423848       -9.4261855151       -8.4571132940  MEOH2     23              0.0000000000
       253        23  MEOH2     LP1B            2.6229696028      -10.0770403950       -8.4365521945  MEOH2     23              0.0000000000
       254        24  MEOH2     C1             -4.2499758469       -9.2502901152        6.5778250989  MEOH2     24              0.0000000000
       255        24  MEOH2     DC1            -4.2307572224       -9.2675303662        6.6241479335  MEOH2     24              0.0000000000
       256        24  MEOH2     O1             -5.6521131909       -9.0917113886        6.2911874686  MEOH2     24              0.0000000000
       257        24  MEOH2     DO1            -5.6565142972       -9.1094179813        6.3959264826  MEOH2     24              0.0000000000
       258        24  MEOH2     HO1            -5.9433845667       -9.7916547253        5.6860921777  MEOH2     24              0.0000000000
       259        24  MEOH2     HO2            -5.6721996564       -8.4496031721        5.5644181983  MEOH2     24              0.0000000000
       260        24  MEOH2     H1A            -3.6585674441       -8.8437003481        5.7297438157  MEOH2     24              0.0000000000
       261        24  MEOH2     H1B            -3.9866739321      -10.3174233035        6.7397505750  MEOH2     24              0.0000000000
       262        24  MEOH2     H1C            -3.8692537145       -8.6166257003        7.4071869427  MEOH2     24              0.0000000000
       263        24  MEOH2     LP1A           -5.8430224749       -9.2651988176        6.5277371616  MEOH2     24              0.0000000000
       264        24  MEOH2     LP1B           -5.6946813561       -8.8826051777        6.0137662296  MEOH2     24              0.0000000000
       265        25  MEOH2     C1              3.3490839845        9.2175987387       -5.0442478501  MEOH2     25              0.0000000000
       266        25  MEOH2     DC1             3.3289133768        9.2260345302       -5.0468286058  MEOH2     25              0.0000000000
       267        25  MEOH2     O1              4.7226458269        9.1732509340       -4.6634687682  MEOH2     25              0.0000000000
       268        25  MEOH2     DO1             4.7062230532        9.1929084889       -4.6865215670  MEOH2     25              0.0000000000
       269        25  MEOH2     HO1             4.8278492127        8.6965100692       -3.8252859738  MEOH2     25              0.0000000000
       270        25  MEOH2     HO2             5.2817673704        8.8821560881       -5.4007250954  MEOH2     25              0.0000000000
       271        25  MEOH2     H1A             3.1625302305        9.9299341247       -5.8761715218  MEOH2     25              0.0000000000
       272        25  MEOH2     H1B             2.7082010144        9.5858148359       -4.2147860216  MEOH2     25              0.0000000000
       273        25  MEOH2     H1C             3.0290617376        8.1946560414       -5.3366431321  MEOH2     25              0.0000000000
       274        25  MEOH2     LP1A            4.8759936505        8.8904107694       -4.8012580503  MEOH2     25              0.0000000000
       275        25  MEOH2     LP1B            4.8027077607        9.4545364793       -4.4711967505  MEOH2     25              0.0000000000
       276        26  MEOH2     C1             -3.1012792769        3.7776375403        0.3677520786  MEOH2     26              0.0000000000
       277        26  MEOH2     DC1            -3.1513964469        3.7614504014        0.3671475963  MEOH2     26              0.0000000000
       278        26  MEOH2     O1             -4.2235499710        3.9468057902        1.1988376493  MEOH2     26              0.0000000000
       279        26  MEOH2     DO1            -4.3070095564        3.9216567186        1.1207567642  MEOH2     26              0.0000000000
       280        26  MEOH2     HO1            -4.0584400927        4.8086071130        1.6122831834  MEOH2     26              0.0000000000
       281        26  MEOH2     HO2            -4.0801045074        3.3177084218        1.9231027259  MEOH2     26              0.0000000000
       282        26  MEOH2     H1A            -2.3393955048        3.1631845795        0.8933961383  MEOH2     26              0.0000000000
       283        26  MEOH2     H1B            -2.5856477262        4.7341091057        0.1362196864  MEOH2     26              0.0000000000
       284        26  MEOH2     H1C            -3.3474639451        3.2730940794       -0.5909710345  MEOH2     26              0.0000000000
       285        26  MEOH2     LP1A           -4.4808744665        4.1047587765        1.0218208191  MEOH2     26              0.0000000000
       286        26  MEOH2     LP1B           -4.1613289025        3.8074975106        1.5138324776  MEOH2     26              0.0000000000
       287        27  MEOH2     C1             -9.6214695552       -3.9049125891       -9.2927946183  MEOH2     27              0.0000000000
       288        27  MEOH2     DC1            -9.6036972724       -3.9061218182       -9.2825627366  MEOH2     27              0.0000000000
       289        27  MEOH2     O1             -8.3496981162       -3.2325488373       -9.5512780623  MEOH2     27              0.0000000000
       290        27  MEOH2     DO1            -8.3440386984       -3.2285782212       -9.5302926032  MEOH2     27              0.0000000000
       291        27  MEOH2     HO1            -7.8479318192       -3.6914838025      -10.2430217163  MEOH2     27              0.0000000000
       292        27  MEOH2     HO2            -8.4229059285       -2.2655054469       -9.5704535370  MEOH2     27              0.0000000000
       293        27  MEOH2     H1A           -10.1225252637       -3.5357753708       -8.3724675611  MEOH2     27              0.0000000000
       294        27  MEOH2     H1B            -9.4746964333       -4.9932841469       -9.1247886564  MEOH2     27              0.0000000000
       295        27  MEOH2     H1C           -10.3317242912       -3.8239556896      -10.1432681279  MEOH2     27              0.0000000000
       296        27  MEOH2     LP1A           -8.3918391994       -2.9871968220       -9.7972994387  MEOH2     27              0.0000000000
       297        27  MEOH2     LP1B           -8.1017626351       -3.3599193244       -9.3396067221  MEOH2     27              0.0000000000
       298        28  MEOH2     C1              6.3133591084       -8.7338241034        4.1344304879  MEOH2     28              0.0000000000
       299        28  MEOH2     DC1             6.2389701108       -8.7946520384        4.1709189194  MEOH2     28              0.0000000000
       300        28  MEOH2     O1              7.0001389819       -7.7803667576        3.3019976659  MEOH2     28              0.0000000000
       301        28  MEOH2     DO1             6.9806846898       -7.8336962178        3.3057412813  MEOH2     28              0.0000000000
       302        28  MEOH2     HO1             6.4181799682       -7.0804166149        2.9668954364  MEOH2     28              0.0000000000
       303        28  MEOH2     HO2             7.7285605611       -7.4346589749        3.8412454127  MEOH2     28              0.0000000000
       304        28  MEOH2     H1A             7.0312892721       -9.4306103103        4.6175311648  MEOH2     28              0.0000000000
       305        28  MEOH2     H1B             5.5970072797       -9.3333493038        3.5329900568  MEOH2     28              0.0000000000
       306        28  MEOH2     H1C             5.7963218711       -8.1616390335        4.9341790376  MEOH2     28              0.0000000000
       307        28  MEOH2     LP1A            7.1294575662       -7.5211849311        3.4984702710  MEOH2     28              0.0000000000
       308        28  MEOH2     LP1B            6.9948144725       -7.8867999136        2.9686155535  MEOH2     28              0.0000000000
       309        29  MEOH2     C1              3.2923424415       -9.2502733108        8.3191369058  MEOH2     29              0.0000000000
       310        29  MEOH2     DC1             3.2664872995       -9.2680493337        8.3327843390  MEOH2     29              0.0000000000
       311        29  MEOH2     O1              3.1752536269       -9.1458986722        9.7635068242  MEOH2     29              0.0000000000
       312        29  MEOH2     DO1             3.1083386857       -9.1607263287        9.7714473305  MEOH2     29              0.0000000000
       313        29  MEOH2     HO1             3.3902587697       -8.2264846125        9.9856567203  MEOH2     29              0.0000000000
       314        29  MEOH2     HO2             3.7826018124       -9.7956755371       10.1505703949  MEOH2     29              0.0000000000
       315        29  MEOH2     H1A             4.2032503445       -9.7928685540        7.9872360231  MEOH2     29              0.0000000000
       316        29  MEOH2     H1B             3.3454109020       -8.2413517756        7.8569874974  MEOH2     29              0.0000000000
       317        29  MEOH2     H1C             2.4531491218       -9.8056473999        7.8483554340  MEOH2     29              0.0000000000
       318        29  MEOH2     LP1A            2.8472015445       -9.0610897778        9.8511953789  MEOH2     29              0.0000000000
       319        29  MEOH2     LP1B            3.4810942915       -9.2245967625        9.9143978394  MEOH2     29              0.0000000000
       320        30  MEOH2     C1              0.9002168533       -7.6947044252       -6.5931511182  MEOH2     30              0.0000000000
       321        30  MEOH2     DC1             0.8615923603       -7.7871088886       -6.6092631458  MEOH2     30              0.0000000000
       322        30  MEOH2     O1              1.4829604036       -6.7858790315       -7.5635974316  MEOH2     30              0.0000000000
       323        30  MEOH2     DO1             1.4431548420       -6.8667563305       -7.5720751582  MEOH2     30              0.0000000000
       324        30  MEOH2     HO1             1.2132987223       -5.8914210807       -7.3025848784  MEOH2     30              0.0000000000
       325        30  MEOH2     HO2             2.4519567381       -6.7418457035       -7.5662750821  MEOH2     30              0.0000000000
       326        30  MEOH2     H1A             0.8306849369       -8.7483399491       -6.9386051635  MEOH2     30              0.0000000000
       327        30  MEOH2     H1B            -0.1303011283       -7.3590495602       -6.3488367654  MEOH2     30              0.0000000000
       328        30  MEOH2     H1C             1.4570177697       -7.6350034293       -5.6336045939  MEOH2     30              0.0000000000
       329        30  MEOH2     LP1A            1.8027143359       -6.6886800450       -7.4596273407  MEOH2     30              0.0000000000
       330        30  MEOH2     LP1B            1.2640198909       -6.7420937581       -7.8331301787  MEOH2     30              0.0000000000
       331        31  MEOH2     C1              9.6711118397        5.9237841475        5.3990639852  MEOH2     31              0.0000000000
       332        31  MEOH2     DC1             9.7096900179        5.9595327584        5.3600361158  MEOH2     31              0.0000000000
       333        31  MEOH2     O1              8.7328509184        4.8184137710        5.5848527032  MEOH2     31              0.0000000000
       334        31  MEOH2     DO1             8.7450583074        4.8247925826        5.4870557241  MEOH2     31              0.0000000000
       335        31  MEOH2     HO1             7.8519549786        5.2105897241        5.6903058451  MEOH2     31              0.0000000000
       336        31  MEOH2     HO2             8.9061256827        4.4610270235        6.4698106510  MEOH2     31              0.0000000000
       337        31  MEOH2     H1A            10.2453076295        6.1138871817        6.3309872832  MEOH2     31              0.0000000000
       338        31  MEOH2     H1B             9.0772271802        6.8493482208        5.2410982940  MEOH2     31              0.0000000000
       339        31  MEOH2     H1C            10.4097372288        5.8052457214        4.5776614186  MEOH2     31              0.0000000000
       340        31  MEOH2     LP1A            8.6144217433        4.7084568651        5.2743949616  MEOH2     31              0.0000000000
       341        31  MEOH2     LP1B            8.7062611770        4.7398339779        5.9248794694  MEOH2     31              0.0000000000
       342        32  MEOH2     C1              8.2744086246       -9.1442119071       -9.7087567314  MEOH2     32              0.0000000000
       343        32  MEOH2     DC1             8.2558490210       -9.1614379853       -9.7234515111  MEOH2     32              0.0000000000
       344        32  MEOH2     O1              9.7069257177       -9.0461524246       -9.6803117938  MEOH2     32              0.0000000000
       345        32  MEOH2     DO1             9.7141427803       -9.0657810720       -9.7021841651  MEOH2     32              0.0000000000
       346        32  MEOH2     HO1             9.8684022760       -8.3103430226       -9.0692390934  MEOH2     32              0.0000000000
       347        32  MEOH2     HO2            10.0501446752       -9.9133947770       -9.4138695848  MEOH2     32              0.0000000000
       348        32  MEOH2     H1A             7.9019107119      -10.0000755136      -10.3113044833  MEOH2     32              0.0000000000
       349        32  MEOH2     H1B             7.8787035102       -8.1970044041      -10.1336524939  MEOH2     32              0.0000000000
       350        32  MEOH2     H1C             7.8623376599       -9.2256075801       -8.6802173472  MEOH2     32              0.0000000000
       351        32  MEOH2     LP1A            9.8361615217       -9.2535925933       -9.4297789948  MEOH2     32              0.0000000000
       352        32  MEOH2     LP1B            9.8172445816       -8.8311285721       -9.9334806922  MEOH2     32              0.0000000000
       353        33  MEOH2     C1              6.3836089859        1.1850760025        9.7603969659  MEOH2     33              0.0000000000
       354        33  MEOH2     DC1             6.3524055432        1.2282743831        9.7706518010  MEOH2     33              0.0000000000
       355        33  MEOH2     O1              5.5084985005        1.9027524043        8.8975687021  MEOH2     33              0.0000000000
       356        33  MEOH2     DO1             5.4464603511        1.8976360340        8.9037088067  MEOH2     33              0.0000000000
       357        33  MEOH2     HO1             4.9062635476        2.5189330482        9.3431407799  MEOH2     33              0.0000000000
       358        33  MEOH2     HO2             6.0349001030        2.1434652063        8.1191994446  MEOH2     33              0.0000000000
       359        33  MEOH2     H1A             7.1225174892        0.6913801074        9.0936139514  MEOH2     33              0.0000000000
       360        33  MEOH2     H1B             5.9037370928        0.3251425717       10.2747494342  MEOH2     33              0.0000000000
       361        33  MEOH2     H1C             6.9532841855        1.8360388070       10.4575616496  MEOH2     33              0.0000000000
       362        33  MEOH2     LP1A            5.6610787981        2.1996365914        8.7923117201  MEOH2     33              0.0000000000
       363        33  MEOH2     LP1B            5.2132667329        1.7212586803        8.8485969599  MEOH2     33              0.0000000000
       364        34  MEOH2     C1             -0.4414292329        4.7180753716        1.5510502737  MEOH2     34              0.0000000000
       365        34  MEOH2     DC1            -0.5175139697        4.6809587437        1.4860827738  MEOH2     34              0.0000000000
       366        34  MEOH2     O1              0.5050810656        4.9848963130        2.5691341564  MEOH2     34              0.0000000000
       367        34  MEOH2     DO1             0.4866525034        4.9352523433        2.4941292177  MEOH2     34              0.0000000000
       368        34  MEOH2     HO1             1.0699037041        5.7578996241        2.4131172675  MEOH2     34              0.0000000000
       369        34  MEOH2     HO2             0.0648453233        5.1103150001        3.4243315864  MEOH2     34              0.0000000000
       370        34  MEOH2     H1A            -1.3479059818        4.4412919551        2.1307155613  MEOH2     34              0.0000000000
       371        34  MEOH2     H1B            -0.1933271561        3.8971593812        0.8447477205  MEOH2     34              0.0000000000
       372        34  MEOH2     H1C            -0.5683010175        5.6185226643        0.9127562792  MEOH2     34              0.0000000000
       373        34  MEOH2     LP1A            0.3641164988        5.1940299118        2.8118111614  MEOH2     34              0.0000000000
       374        34  MEOH2     LP1B            0.8023510824        4.8118048338        2.5045595717  MEOH2     34              0.0000000000
       375        35  MEOH2     C1             -5.5677257166       -8.3693803874        9.3911932378  MEOH2     35              0.0000000000
       376        35  MEOH2     DC1            -5.5911435366       -8.4159989742        9.4076942318  MEOH2     35              0.0000000000
       377        35  MEOH2     O1             -5.5335321148       -9.8067958003        9.2486914896  MEOH2     35              0.0000000000
       378        35  MEOH2     DO1            -5.5377833494       -9.8257071972        9.2622099213  MEOH2     35              0.0000000000
       379        35  MEOH2     HO1            -4.8706318913      -10.2530581720        9.7985216369  MEOH2     35              0.0000000000
       380        35  MEOH2     HO2            -5.9610529709      -10.1188517087        8.4358280154  MEOH2     35              0.0000000000
       381        35  MEOH2     H1A            -6.1219807292       -7.8859430720        8.5584803563  MEOH2     35              0.0000000000
       382        35  MEOH2     H1B            -4.5515179866       -7.9225506408        9.3466283619  MEOH2     35              0.0000000000
       383        35  MEOH2     H1C            -6.0360592111       -8.0055137394       10.3306536157  MEOH2     35              0.0000000000
       384        35  MEOH2     LP1A           -5.7555014904       -9.9548592680        9.4752015464  MEOH2     35              0.0000000000
       385        35  MEOH2     LP1B           -5.3144077660       -9.8963525082        8.9908851363  MEOH2     35              0.0000000000
       386        36  MEOH2     C1              5.9524857652       -8.0342468842        8.7681007063  MEOH2     36              0.0000000000
       387        36  MEOH2     DC1             5.8730521503       -8.0835276804        8.8081724123  MEOH2     36              0.0000000000
       388        36  MEOH2     O1              6.2756646198       -9.2269594598        9.5561876444  MEOH2     36              0.0000000000
       389        36  MEOH2     DO1             6.1481389629       -9.2440334741        9.6377445256  MEOH2     36              0.0000000000
       390        36  MEOH2     HO1             5.9323843192      -10.0456619243        9.1653105409  MEOH2     36              0.0000000000
       391        36  MEOH2     HO2             7.1717983975       -9.3353340478        9.2010831497  MEOH2     36              0.0000000000
       392        36  MEOH2     H1A             6.8549455844       -7.3875735733        8.8093427257  MEOH2     36              0.0000000000
       393        36  MEOH2     H1B             5.1818485687       -7.3204618080        9.1299710931  MEOH2     36              0.0000000000
       394        36  MEOH2     H1C             5.9142215946       -8.2267748261        7.6745789439  MEOH2     36              0.0000000000
       395        36  MEOH2     LP1A            6.5842696224       -9.3573615282        9.4549046106  MEOH2     36              0.0000000000
       396        36  MEOH2     LP1B            6.0253469470       -9.2848384439        9.7938661792  MEOH2     36              0.0000000000
       397        37  MEOH2     C1             -3.5412421871        5.2764458034       -7.0335850959  MEOH2     37              0.0000000000
       398        37  MEOH2     DC1            -3.6219199234        5.2779370370       -6.9635836227  MEOH2     37              0.0000000000
       399        37  MEOH2     O1             -4.8990489430        5.5452789397       -6.7016125618  MEOH2     37              0.0000000000
       400        37  MEOH2     DO1            -4.9577575444        5.5194604837       -6.6325627062  MEOH2     37              0.0000000000
       401        37  MEOH2     HO1            -5.2958142786        5.6078519749       -7.5845405797  MEOH2     37              0.0000000000
       402        37  MEOH2     HO2            -4.9284548352        6.4628825998       -6.3885010529  MEOH2     37              0.0000000000
       403        37  MEOH2     H1A            -2.9810245002        6.2102531764       -7.2537689633  MEOH2     37              0.0000000000
       404        37  MEOH2     H1B            -3.4587066216        4.7025209032       -7.9812765487  MEOH2     37              0.0000000000
       405        37  MEOH2     H1C            -2.9681422780        4.6900515499       -6.2839056484  MEOH2     37              0.0000000000
       406        37  MEOH2     LP1A           -5.0745275840        5.2449381188       -6.6628486888  MEOH2     37              0.0000000000
       407        37  MEOH2     LP1B           -4.9492862154        5.8905020855       -6.6733779014  MEOH2     37              0.0000000000
       408        38  MEOH2     C1              9.6538218540        2.2689353651        4.5196550567  MEOH2     38              0.0000000000
       409        38  MEOH2     DC1             9.6659969490        2.3107925329        4.5103172286  MEOH2     38              0.0000000000
       410        38  MEOH2     O1              8.2173581869        2.1087820380        4.5038674142  MEOH2     38              0.0000000000
       411        38  MEOH2     DO1             8.1831735306        2.1707762719        4.4856633893  MEOH2     38              0.0000000000
       412        38  MEOH2     HO1             8.0207039996        1.9369444350        3.5696838294  MEOH2     38              0.0000000000
       413        38  MEOH2     HO2             8.0641299726        1.3830868748        5.1289975166  MEOH2     38              0.0000000000
       414        38  MEOH2     H1A            10.0398332646        2.0581057194        5.5398839781  MEOH2     38              0.0000000000
       415        38  MEOH2     H1B            10.0082689160        3.2673952508        4.1853406277  MEOH2     38              0.0000000000
       416        38  MEOH2     H1C            10.1198271619        1.5084492323        3.8572194788  MEOH2     38              0.0000000000
       417        38  MEOH2     LP1A            8.1336500866        1.7736317558        4.5601456718  MEOH2     38              0.0000000000
       418        38  MEOH2     LP1B            8.0628167537        2.4191933559        4.4563094580  MEOH2     38              0.0000000000
       419        39  MEOH2     C1             -7.6618321747       -2.6303958504       -0.0915589918  MEOH2     39              0.0000000000
       420        39  MEOH2     DC1            -7.6044853183       -2.5983349519       -0.1162712356  MEOH2     39              0.0000000000
       421        39  MEOH2     O1             -8.8094282274       -3.1373693803        0.5805115648  MEOH2     39              0.0000000000
       422        39  MEOH2     DO1            -8.7221428989       -3.0916938444        0.5746563076  MEOH2     39              0.0000000000
       423        39  MEOH2     HO1            -9.0649054320       -4.0673403007        0.4766583703  MEOH2     39              0.0000000000
       424        39  MEOH2     HO2            -9.3903905142       -2.5728794913        1.1141162765  MEOH2     39              0.0000000000
       425        39  MEOH2     H1A            -7.7322650446       -1.5612704701       -0.3853805926  MEOH2     39              0.0000000000
       426        39  MEOH2     H1B            -7.4937830770       -3.1504208954       -1.0588513237  MEOH2     39              0.0000000000
       427        39  MEOH2     H1C            -6.7909739315       -2.7745576932        0.5830848289  MEOH2     39              0.0000000000
       428        39  MEOH2     LP1A           -8.7200966725       -3.2550144602        0.8978119091  MEOH2     39              0.0000000000
       429        39  MEOH2     LP1B           -9.0936950879       -3.0946495450        0.3808434208  MEOH2     39              0.0000000000
       430        40  MEOH2     C1             -4.3215054563        2.2369277690        9.0300656692  MEOH2     40              0.0000000000
       431        40  MEOH2     DC1            -4.3018630828        2.2024269775        9.0369078684  MEOH2     40              0.0000000000
       432        40  MEOH2     O1             -5.2182130693        1.4089598279        8.2878548655  MEOH2     40              0.0000000000
       433        40  MEOH2     DO1            -5.1910822408        1.3500986323        8.2881085903  MEOH2     40              0.0000000000
       434        40  MEOH2     HO1            -6.0967887637        1.7160337423        8.5611868272  MEOH2     40              0.0000000000
       435        40  MEOH2     HO2            -5.0351756222        1.5750740824        7.3498765354  MEOH2     40              0.0000000000
       436        40  MEOH2     H1A            -3.2623224029        1.9070012822        8.9700592228  MEOH2     40              0.0000000000
       437        40  MEOH2     H1B            -4.6499142596        2.3660513022       10.0835341180  MEOH2     40              0.0000000000
       438        40  MEOH2     H1C            -4.3188776994        3.2561756457        8.5879708121  MEOH2     40              0.0000000000
       439        40  MEOH2     LP1A           -5.2884986249        1.5561501311        7.9781857594  MEOH2     40              0.0000000000
       440        40  MEOH2     LP1B           -5.2892823738        1.1176216883        8.4683299121  MEOH2     40              0.0000000000
       441        41  MEOH2     C1             -8.1920488806        9.5183751743        9.4358023363  MEOH2     41              0.0000000000
       442        41  MEOH2     DC1            -8.2383275985        9.5579512882        9.4451912167  MEOH2     41              0.0000000000
       443        41  MEOH2     O1             -9.5479604617        9.8676193011        9.0806898753  MEOH2     41              0.0000000000
       444        41  MEOH2     DO1            -9.5759506188        9.8920281781        9.0931884083  MEOH2     41              0.0000000000
       445        41  MEOH2     HO1            -9.7879321456        9.2950542867        8.3353826263  MEOH2     41              0.0000000000
       446        41  MEOH2     HO2           -10.0895740627        9.8106509828        9.8833786810  MEOH2     41              0.0000000000
       447        41  MEOH2     H1A            -7.6183082481       10.2941641375        9.9865238383  MEOH2     41              0.0000000000
       448        41  MEOH2     H1B            -7.5842856666        9.2817214550        8.5363914766  MEOH2     41              0.0000000000
       449        41  MEOH2     H1C            -8.1493097996        8.6065469723       10.0690982397  MEOH2     41              0.0000000000
       450        41  MEOH2     LP1A           -9.7736962831        9.6743784937        9.2656258894  MEOH2     41              0.0000000000
       451        41  MEOH2     LP1B           -9.5471228821       10.1266043264        8.8452624871  MEOH2     41              0.0000000000
       452        42  MEOH2     C1             -3.4181644761        6.4282295756       -4.2066109290  MEOH2     42              0.0000000000
       453        42  MEOH2     DC1            -3.4735030858        6.4232551569       -4.1781509154  MEOH2     42              0.0000000000
       454        42  MEOH2     O1             -3.4499689646        6.8150566426       -2.8280896382  MEOH2     42              0.0000000000
       455        42  MEOH2     DO1            -3.5552886817        6.6874494356       -2.7875179701  MEOH2     42              0.0000000000
       456        42  MEOH2     HO1            -2.5159376280        6.8800425731       -2.5745895545  MEOH2     42              0.0000000000
       457        42  MEOH2     HO2            -3.4788095768        7.7840449453       -2.7944758244  MEOH2     42              0.0000000000
       458        42  MEOH2     H1A            -4.3701759722        5.9367121366       -4.5005594270  MEOH2     42              0.0000000000
       459        42  MEOH2     H1B            -2.5988919857        5.7106440891       -4.4261209706  MEOH2     42              0.0000000000
       460        42  MEOH2     H1C            -3.2746089977        7.2904087924       -4.8924387665  MEOH2     42              0.0000000000
       461        42  MEOH2     LP1A           -3.4562945033        7.1640101204       -2.8017940500  MEOH2     42              0.0000000000
       462        42  MEOH2     LP1B           -3.4604371981        6.5307715895       -2.6241964684  MEOH2     42              0.0000000000
       463        43  MEOH2     C1             -8.4886339102        9.2784708682        0.0358453503  MEOH2     43              0.0000000000
       464        43  MEOH2     DC1            -8.4598270361        9.3002913616        0.0442334843  MEOH2     43              0.0000000000
       465        43  MEOH2     O1             -7.0808356453        9.5457096092       -0.1296733034  MEOH2     43              0.0000000000
       466        43  MEOH2     DO1            -7.0498049966        9.5497040971       -0.1326724833  MEOH2     43              0.0000000000
       467        43  MEOH2     HO1            -6.5901931158        8.7586706419        0.1544737927  MEOH2     43              0.0000000000
       468        43  MEOH2     HO2            -6.9739741366        9.9360905290       -1.0111966194  MEOH2     43              0.0000000000
       469        43  MEOH2     H1A            -9.1325078461       10.1319231373       -0.2664237011  MEOH2     43              0.0000000000
       470        43  MEOH2     H1B            -8.7360939426        8.9822328670        1.0776359146  MEOH2     43              0.0000000000
       471        43  MEOH2     H1C            -8.8341714261        8.3868563969       -0.5297945170  MEOH2     43              0.0000000000
       472        43  MEOH2     LP1A           -6.9786646009        9.4541817992       -0.4516728961  MEOH2     43              0.0000000000
       473        43  MEOH2     LP1B           -6.9518040324        9.6920816293        0.1608883502  MEOH2     43              0.0000000000
       474        44  MEOH2     C1             -5.5601378279       -2.1637308400       -8.0892463460  MEOH2     44              0.0000000000
       475        44  MEOH2     DC1            -5.6183602661       -2.1808886444       -8.1137022023  MEOH2     44              0.0000000000
       476        44  MEOH2     O1             -5.4582256984       -1.8213223354       -9.4700778194  MEOH2     44              0.0000000000
       477        44  MEOH2     DO1            -5.5488337657       -1.8001081328       -9.4773256191  MEOH2     44              0.0000000000
       478        44  MEOH2     HO1            -4.6660962307       -1.2614849706       -9.4736878545  MEOH2     44              0.0000000000
       479        44  MEOH2     HO2            -5.1270135848       -2.6231553963       -9.9039698327  MEOH2     44              0.0000000000
       480        44  MEOH2     H1A            -6.5488136040       -2.4724536705       -7.6873366254  MEOH2     44              0.0000000000
       481        44  MEOH2     H1B            -5.1958264047       -1.3864828490       -7.3839210675  MEOH2     44              0.0000000000
       482        44  MEOH2     H1C            -4.8041121302       -2.9436202912       -7.8557541852  MEOH2     44              0.0000000000
       483        44  MEOH2     LP1A           -5.2671221511       -2.0609654983       -9.6390470140  MEOH2     44              0.0000000000
       484        44  MEOH2     LP1B           -5.6416238644       -1.5304024551       -9.5351219269  MEOH2     44              0.0000000000
       485        45  MEOH2     C1             -6.8551198720       -0.5980925763       -3.8390182628  MEOH2     45              0.0000000000
       486        45  MEOH2     DC1            -6.8654281702       -0.5752387626       -3.8616651977  MEOH2     45              0.0000000000
       487        45  MEOH2     O1             -6.3419842346       -0.0516477808       -2.6188694067  MEOH2     45              0.0000000000
       488        45  MEOH2     DO1            -6.3560716990       -0.0203244874       -2.6372968512  MEOH2     45              0.0000000000
       489        45  MEOH2     HO1            -6.6005547283        0.8778355915       -2.5183608907  MEOH2     45              0.0000000000
       490        45  MEOH2     HO2            -6.3991435681       -0.7276223853       -1.9255504723  MEOH2     45              0.0000000000
       491        45  MEOH2     H1A            -6.5784617227       -1.6725249727       -3.8971241545  MEOH2     45              0.0000000000
       492        45  MEOH2     H1B            -6.4149067842       -0.1244692239       -4.7424640883  MEOH2     45              0.0000000000
       493        45  MEOH2     H1C            -7.9625694760       -0.5169187093       -3.8748955260  MEOH2     45              0.0000000000
       494        45  MEOH2     LP1A           -6.5703272289       -0.1041029182       -2.3588541465  MEOH2     45              0.0000000000
       495        45  MEOH2     LP1B           -6.0229945453        0.0820641649       -2.6724109205  MEOH2     45              0.0000000000
       496        46  MEOH2     C1             -9.4552770907        3.4375212235       -9.4470079630  MEOH2     46              0.0000000000
       497        46  MEOH2     DC1            -9.4769779308        3.4062110099       -9.4124090973  MEOH2     46              0.0000000000
       498        46  MEOH2     O1             -9.7497673440        2.1904794358       -8.8139928720  MEOH2     46              0.0000000000
       499        46  MEOH2     DO1            -9.7301016379        2.1390359074       -8.7935054379  MEOH2     46              0.0000000000
       500        46  MEOH2     HO1           -10.0511577488        1.6257723709       -9.5428068090  MEOH2     46              0.0000000000
       501        46  MEOH2     HO2            -9.0021002126        2.0448709411       -8.2134164591  MEOH2     46              0.0000000000
       502        46  MEOH2     H1A            -9.7497304805        4.2580499937       -8.7582767097  MEOH2     46              0.0000000000
       503        46  MEOH2     H1B           -10.0483411949        3.6111512286      -10.3702893879  MEOH2     46              0.0000000000
       504        46  MEOH2     H1C            -8.3805718591        3.5786028549       -9.6907817116  MEOH2     46              0.0000000000
       505        46  MEOH2     LP1A           -9.4635225808        1.9891926512       -8.8070960704  MEOH2     46              0.0000000000
       506        46  MEOH2     LP1B          -10.0822539650        2.1872784664       -8.7047115806  MEOH2     46              0.0000000000
       507        47  MEOH2     C1             -2.4257918251        0.8090247403       -0.4637662116  MEOH2     47              0.0000000000
       508        47  MEOH2     DC1            -2.4215646170        0.8436366959       -0.4208897028  MEOH2     47              0.0000000000
       509        47  MEOH2     O1             -3.7604789590        0.5148477773       -1.0786115562  MEOH2     47              0.0000000000
       510        47  MEOH2     DO1            -3.9186331691        0.7399640976       -0.7677564164  MEOH2     47              0.0000000000
       511        47  MEOH2     HO1            -3.6145662235        0.1791797788       -1.9769079827  MEOH2     47              0.0000000000
       512        47  MEOH2     HO2            -3.9205534458       -0.3454847652       -0.6601571675  MEOH2     47              0.0000000000
       513        47  MEOH2     H1A            -2.0753336789        0.5388341732        0.5553005903  MEOH2     47              0.0000000000
       514        47  MEOH2     H1B            -2.0590249500        1.8577134068       -0.4711919391  MEOH2     47              0.0000000000
       515        47  MEOH2     H1C            -1.7137541712        0.3626865302       -1.1904749456  MEOH2     47              0.0000000000
       516        47  MEOH2     LP1A           -3.8558992230        0.1860412274       -1.0059379696  MEOH2     47              0.0000000000
       517        47  MEOH2     LP1B           -3.8834767640        0.8000960169       -1.2398723505  MEOH2     47              0.0000000000
       518        48  MEOH2     C1             -4.5141454558        9.8132227172       -3.4395955964  MEOH2     48              0.0000000000
       519        48  MEOH2     DC1            -4.5227968830        9.8042159628       -3.4319739196  MEOH2     48              0.0000000000
       520        48  MEOH2     O1             -4.7570217601        9.3397191684       -2.1020271901  MEOH2     48              0.0000000000
       521        48  MEOH2     DO1            -4.7497450138        9.3227442608       -2.0775565888  MEOH2     48              0.0000000000
       522        48  MEOH2     HO1            -4.4239752925        9.9723040944       -1.4464233750  MEOH2     48              0.0000000000
       523        48  MEOH2     HO2            -5.6193175523        8.9018870703       -2.1771871637  MEOH2     48              0.0000000000
       524        48  MEOH2     H1A            -4.4481968197        8.9333767856       -4.1147569953  MEOH2     48              0.0000000000
       525        48  MEOH2     H1B            -3.5578540890       10.3700566940       -3.5384072566  MEOH2     48              0.0000000000
       526        48  MEOH2     H1C            -5.3753241617       10.4063289605       -3.8149850235  MEOH2     48              0.0000000000
       527        48  MEOH2     LP1A           -5.0711080528        9.4479855461       -1.9918991181  MEOH2     48              0.0000000000
       528        48  MEOH2     LP1B           -4.4882828676        9.1432566175       -1.9939444730  MEOH2     48              0.0000000000
       529        49  MEOH2     C1             -2.4800018677       -1.2283268724       -9.1744992352  MEOH2     49              0.0000000000
       530        49  MEOH2     DC1            -2.6037606858       -1.2965611937       -9.1825491866  MEOH2     49              0.0000000000
       531        49  MEOH2     O1             -2.8570290683       -2.5486984737       -9.4365034771  MEOH2     49              0.0000000000
       532        49  MEOH2     DO1            -3.0210677700       -2.5609116172       -9.4546515296  MEOH2     49              0.0000000000
       533        49  MEOH2     HO1            -2.2405661250       -2.7631774287      -10.1540494468  MEOH2     49              0.0000000000
       534        49  MEOH2     HO2            -2.3796129989       -3.0065832575       -8.7270562119  MEOH2     49              0.0000000000
       535        49  MEOH2     H1A            -3.1458295428       -0.5940417124       -8.5510597088  MEOH2     49              0.0000000000
       536        49  MEOH2     H1B            -2.0750019195       -0.7057910366      -10.0673891187  MEOH2     49              0.0000000000
       537        49  MEOH2     H1C            -1.6197909513       -1.2773848785       -8.4731066977  MEOH2     49              0.0000000000
       538        49  MEOH2     LP1A           -2.6737317049       -2.7678861818       -9.2343678167  MEOH2     49              0.0000000000
       539        49  MEOH2     LP1B           -3.1128633559       -2.5550047496       -9.6752691535  MEOH2     49              0.0000000000
       540        50  MEOH2     C1             -9.7761631073        8.1735922493        3.1450029544  MEOH2     50              0.0000000000
       541        50  MEOH2     DC1            -9.7605255127        8.1706793135        3.1009263620  MEOH2     50              0.0000000000
       542        50  MEOH2     O1             -9.8942350938        9.5811343547        3.4679869666  MEOH2     50              0.0000000000
       543        50  MEOH2     DO1            -9.8621338203        9.5858769040        3.4061628767  MEOH2     50              0.0000000000
       544        50  MEOH2     HO1            -9.8391881814        9.6636137984        4.4329050869  MEOH2     50              0.0000000000
       545        50  MEOH2     HO2            -9.5768306475       10.2279475298        2.8185355559  MEOH2     50              0.0000000000
       546        50  MEOH2     H1A           -10.2053461131        7.8990038263        2.1577217657  MEOH2     50              0.0000000000
       547        50  MEOH2     H1B           -10.3883555910        7.5882198858        3.8639470130  MEOH2     50              0.0000000000
       548        50  MEOH2     H1C            -8.7448764981        7.7966885712        3.3144507322  MEOH2     50              0.0000000000
       549        50  MEOH2     LP1A           -9.5779259809        9.7309624606        3.4676975200  MEOH2     50              0.0000000000
       550        50  MEOH2     LP1B          -10.2310304394        9.6663599264        3.5104781085  MEOH2     50              0.0000000000
       551        51  MEOH2     C1             -9.0856838434        0.6535908195        4.4616737411  MEOH2     51              0.0000000000
       552        51  MEOH2     DC1            -9.0766492750        0.6286998815        4.4605090067  MEOH2     51              0.0000000000
       553        51  MEOH2     O1             -9.4765204553        0.7125781859        3.0808138862  MEOH2     51              0.0000000000
       554        51  MEOH2     DO1            -9.4393823788        0.6745909796        3.0753248483  MEOH2     51              0.0000000000
       555        51  MEOH2     HO1           -10.4195748257        0.5163587860        2.9665930389  MEOH2     51              0.0000000000
       556        51  MEOH2     HO2            -9.2119597449        1.5808607520        2.7387714658  MEOH2     51              0.0000000000
       557        51  MEOH2     H1A            -7.9754060862        0.6307878212        4.4946028500  MEOH2     51              0.0000000000
       558        51  MEOH2     H1B            -9.3972932125       -0.2356974627        5.0502202172  MEOH2     51              0.0000000000
       559        51  MEOH2     H1C            -9.4518105741        1.5184155217        5.0552648906  MEOH2     51              0.0000000000
       560        51  MEOH2     LP1A           -9.5742424534        1.0382634226        2.9978709075  MEOH2     51              0.0000000000
       561        51  MEOH2     LP1B           -9.4331766651        0.3994118275        2.9306534794  MEOH2     51              0.0000000000
       562        52  MEOH2     C1             -0.2667178628       -4.9661793302        4.2258453955  MEOH2     52              0.0000000000
       563        52  MEOH2     DC1            -0.3468961035       -4.9463453905        4.1969421258  MEOH2     52              0.0000000000
       564        52  MEOH2     O1              0.1580594728       -4.3502072105        5.4160292813  MEOH2     52              0.0000000000
       565        52  MEOH2     DO1             0.0701954713       -4.3148083866        5.3627063337  MEOH2     52              0.0000000000
       566        52  MEOH2     HO1             0.1922996770       -4.9738971279        6.1581468569  MEOH2     52              0.0000000000
       567        52  MEOH2     HO2             1.0870670159       -4.0745559314        5.3728858160  MEOH2     52              0.0000000000
       568        52  MEOH2     H1A            -0.0810344138       -4.3027537179        3.3542324561  MEOH2     52              0.0000000000
       569        52  MEOH2     H1B            -1.3262957524       -5.3001428876        4.2166781128  MEOH2     52              0.0000000000
       570        52  MEOH2     H1C             0.3287410913       -5.9024495372        4.1697407300  MEOH2     52              0.0000000000
       571        52  MEOH2     LP1A            0.5069465429       -4.3642030306        5.4401524932  MEOH2     52              0.0000000000
       572        52  MEOH2     LP1B           -0.1175154268       -4.2212984684        5.5890639914  MEOH2     52              0.0000000000
       573        53  MEOH2     C1             -2.0615781878        9.6853551875        6.2368370865  MEOH2     53              0.0000000000
       574        53  MEOH2     DC1            -2.1194851303        9.7088968773        6.1989320358  MEOH2     53              0.0000000000
       575        53  MEOH2     O1             -1.0841148276        9.5672312459        7.2702165593  MEOH2     53              0.0000000000
       576        53  MEOH2     DO1            -1.1416470661        9.5761633344        7.2513714421  MEOH2     53              0.0000000000
       577        53  MEOH2     HO1            -0.1880697571        9.6546847766        6.9091693166  MEOH2     53              0.0000000000
       578        53  MEOH2     HO2            -1.2027413940        8.7860893197        7.8329287688  MEOH2     53              0.0000000000
       579        53  MEOH2     H1A            -2.3058007895        8.6935379855        5.7998302667  MEOH2     53              0.0000000000
       580        53  MEOH2     H1B            -1.6497316553       10.2972057938        5.4059687030  MEOH2     53              0.0000000000
       581        53  MEOH2     H1C            -2.9601207846       10.1629803048        6.6827254699  MEOH2     53              0.0000000000
       582        53  MEOH2     LP1A           -1.0184426529        9.8815915314        7.4093739392  MEOH2     53              0.0000000000
       583        53  MEOH2     LP1B           -0.9941859996        9.2315883502        7.3121289964  MEOH2     53              0.0000000000
       584        54  MEOH2     C1              9.3942001816       -9.1895876844       -6.6239483550  MEOH2     54              0.0000000000
       585        54  MEOH2     DC1             9.4073419704       -9.2317450679       -6.7133073335  MEOH2     54              0.0000000000
       586        54  MEOH2     O1              9.1515159017       -7.8259759517       -7.0443505347  MEOH2     54              0.0000000000
       587        54  MEOH2     DO1             9.1288303803       -7.8928054248       -7.1944539582  MEOH2     54              0.0000000000
       588        54  MEOH2     HO1             8.4484193762       -7.5058840414       -6.4577531898  MEOH2     54              0.0000000000
       589        54  MEOH2     HO2             9.8048755765       -7.3383381214       -6.5187742017  MEOH2     54              0.0000000000
       590        54  MEOH2     H1A             9.8030688518       -9.8974113875       -7.3763664679  MEOH2     54              0.0000000000
       591        54  MEOH2     H1B             8.4577725620       -9.6074078544       -6.1963379955  MEOH2     54              0.0000000000
       592        54  MEOH2     H1C            10.1684273852       -9.1467720508       -5.8282976398  MEOH2     54              0.0000000000
       593        54  MEOH2     LP1A            9.3619519690       -7.6075934888       -6.8696343035  MEOH2     54              0.0000000000
       594        54  MEOH2     LP1B            8.9090369029       -7.8198556999       -7.2966727052  MEOH2     54              0.0000000000
       595        55  MEOH2     C1             -9.5279324609       -1.5615946222        7.4454729421  MEOH2     55              0.0000000000
       596        55  MEOH2     DC1            -9.5150279136       -1.5787635601        7.4221596253  MEOH2     55              0.0000000000
       597        55  MEOH2     O1             -9.5394962191       -2.0345406062        8.8135909866  MEOH2     55              0.0000000000
       598        55  MEOH2     DO1            -9.5247704120       -2.1210013556        8.7955267040  MEOH2     55              0.0000000000
       599        55  MEOH2     HO1           -10.4549335815       -2.3118616142        8.9747353178  MEOH2     55              0.0000000000
       600        55  MEOH2     HO2            -9.2862255169       -1.2420910222        9.3123670971  MEOH2     55              0.0000000000
       601        55  MEOH2     H1A            -9.1844630115       -0.5051432639        7.4616057286  MEOH2     55              0.0000000000
       602        55  MEOH2     H1B           -10.5251561095       -1.5772208022        6.9559611260  MEOH2     55              0.0000000000
       603        55  MEOH2     H1C            -8.7751976447       -2.0729714638        6.8081307871  MEOH2     55              0.0000000000
       604        55  MEOH2     LP1A           -9.4613658196       -2.3755783478        8.8230196378  MEOH2     55              0.0000000000
       605        55  MEOH2     LP1B           -9.6083499179       -1.7693260099        9.0313532104  MEOH2     55              0.0000000000
       606        56  MEOH2     C1              0.5008542612       -1.5629172716        2.7443121356  MEOH2     56              0.0000000000
       607        56  MEOH2     DC1             0.4576135443       -1.5733702674        2.7537169354  MEOH2     56              0.0000000000
       608        56  MEOH2     O1             -0.8774089997       -1.3656746585        2.4649984624  MEOH2     56              0.0000000000
       609        56  MEOH2     DO1            -0.9171092936       -1.4088155509        2.4692374664  MEOH2     56              0.0000000000
       610        56  MEOH2     HO1            -1.3035935290       -0.9834953580        3.2480729986  MEOH2     56              0.0000000000
       611        56  MEOH2     HO2            -0.8291503752       -0.8138844499        1.6686953345  MEOH2     56              0.0000000000
       612        56  MEOH2     H1A             1.1145526245       -1.0236179890        1.9914166547  MEOH2     56              0.0000000000
       613        56  MEOH2     H1B             0.8523557513       -2.6154021164        2.6891455236  MEOH2     56              0.0000000000
       614        56  MEOH2     H1C             0.7473148816       -1.1198961657        3.7329022754  MEOH2     56              0.0000000000
       615        56  MEOH2     LP1A           -0.9269519448       -1.0489507491        2.3245297407  MEOH2     56              0.0000000000
       616        56  MEOH2     LP1B           -1.0587019394       -1.6533793939        2.5478166683  MEOH2     56              0.0000000000
       617        57  MEOH2     C1             -1.5549588265       -5.8824103240       -4.0451228545  MEOH2     57              0.0000000000
       618        57  MEOH2     DC1            -1.6119898552       -5.8818632266       -4.0548726212  MEOH2     57              0.0000000000
       619        57  MEOH2     O1             -2.8331806076       -5.4132773293       -4.4702348954  MEOH2     57              0.0000000000
       620        57  MEOH2     DO1            -2.8554687280       -5.4250842418       -4.5306738767  MEOH2     57              0.0000000000
       621        57  MEOH2     HO1            -2.7463985545       -4.4474473400       -4.4469688698  MEOH2     57              0.0000000000
       622        57  MEOH2     HO2            -3.5119266659       -5.7437330929       -3.8611349227  MEOH2     57              0.0000000000
       623        57  MEOH2     H1A            -1.7117227092       -6.8667956157       -3.5544787019  MEOH2     57              0.0000000000
       624        57  MEOH2     H1B            -0.9815826913       -5.2344808892       -3.3481664312  MEOH2     57              0.0000000000
       625        57  MEOH2     H1C            -0.8718978791       -6.1821493163       -4.8684728899  MEOH2     57              0.0000000000
       626        57  MEOH2     LP1A           -2.8390553208       -5.3810787374       -4.8187011613  MEOH2     57              0.0000000000
       627        57  MEOH2     LP1B           -3.0454499745       -5.3775761780       -4.1942509400  MEOH2     57              0.0000000000
       628        58  MEOH2     C1             -9.7568273372       -9.8354295235       -4.2618799055  MEOH2     58              0.0000000000
       629        58  MEOH2     DC1            -9.7485777865       -9.8110640016       -4.3356594050  MEOH2     58              0.0000000000
       630        58  MEOH2     O1             -8.3731321492       -9.3654258496       -4.4196507920  MEOH2     58              0.0000000000
       631        58  MEOH2     DO1            -8.3628430722       -9.3919910634       -4.5679831432  MEOH2     58              0.0000000000
       632        58  MEOH2     HO1            -7.8626144663       -9.8724824617       -3.7691392337  MEOH2     58              0.0000000000
       633        58  MEOH2     HO2            -8.2488262726       -8.6306060506       -3.7987740632  MEOH2     58              0.0000000000
       634        58  MEOH2     H1A           -10.4480852558       -9.0177261949       -3.9654937443  MEOH2     58              0.0000000000
       635        58  MEOH2     H1B            -9.8121748436      -10.4403778313       -3.3316674574  MEOH2     58              0.0000000000
       636        58  MEOH2     H1C           -10.1876358088      -10.4157318381       -5.1056655923  MEOH2     58              0.0000000000
       637        58  MEOH2     LP1A           -8.2082659370       -9.5575595832       -4.6613194919  MEOH2     58              0.0000000000
       638        58  MEOH2     LP1B           -8.3159996749       -9.0895535441       -4.2119723110  MEOH2     58              0.0000000000
       639        59  MEOH2     C1             -4.5459972756        7.3973969112        0.3036349151  MEOH2     59              0.0000000000
       640        59  MEOH2     DC1            -4.6144673967        7.3812206687        0.2553650564  MEOH2     59              0.0000000000
       641        59  MEOH2     O1             -3.7370099064        8.5359981163        0.6889773438  MEOH2     59              0.0000000000
       642        59  MEOH2     DO1            -3.8425952113        8.5621620403        0.6427503270  MEOH2     59              0.0000000000
       643        59  MEOH2     HO1            -3.2936626286        8.3280001727        1.5262825737  MEOH2     59              0.0000000000
       644        59  MEOH2     HO2            -2.9232956175        8.6012772589        0.1650425284  MEOH2     59              0.0000000000
       645        59  MEOH2     H1A            -4.9831963175        7.4511183249       -0.7163121463  MEOH2     59              0.0000000000
       646        59  MEOH2     H1B            -5.2714529490        7.1652287328        1.1124198092  MEOH2     59              0.0000000000
       647        59  MEOH2     H1C            -3.9226081468        6.4827369953        0.2082188139  MEOH2     59              0.0000000000
       648        59  MEOH2     LP1A           -3.4169702163        8.5079404735        0.5500983840  MEOH2     59              0.0000000000
       649        59  MEOH2     LP1B           -3.9267694309        8.7577965073        0.8821011295  MEOH2     59              0.0000000000
       650        60  MEOH2     C1             -0.3038725038       -9.6679103386        3.2073309493  MEOH2     60              0.0000000000
       651        60  MEOH2     DC1            -0.3427998050       -9.6748552562        3.2481355619  MEOH2     60              0.0000000000
       652        60  MEOH2     O1             -1.6031586177       -9.6616496747        2.5962910351  MEOH2     60              0.0000000000
       653        60  MEOH2     DO1            -1.6098667566       -9.6381678723        2.5969310406  MEOH2     60              0.0000000000
       654        60  MEOH2     HO1            -2.3882628636       -9.7358969627        3.1610907028  MEOH2     60              0.0000000000
       655        60  MEOH2     HO2            -1.5291765560       -9.3506098547        1.6804958151  MEOH2     60              0.0000000000
       656        60  MEOH2     H1A             0.4160820310       -9.9575713557        2.4122944949  MEOH2     60              0.0000000000
       657        60  MEOH2     H1B            -0.1317027844      -10.4272371215        3.9998594515  MEOH2     60              0.0000000000
       658        60  MEOH2     H1C            -0.0125589619       -8.6713011360        3.6025872177  MEOH2     60              0.0000000000
       659        60  MEOH2     LP1A           -1.7203376165       -9.3331040849        2.5675355547  MEOH2     60              0.0000000000
       660        60  MEOH2     LP1B           -1.6977590262       -9.9881192678        2.5128142870  MEOH2     60              0.0000000000
       661        61  MEOH2     C1             -9.3734966983        6.6182954637       -9.4682859836  MEOH2     61              0.0000000000
       662        61  MEOH2     DC1            -9.4106477742        6.6249587128       -9.4669415636  MEOH2     61              0.0000000000
       663        61  MEOH2     O1             -8.0378561873        6.0595244771       -9.2101523910  MEOH2     61              0.0000000000
       664        61  MEOH2     DO1            -8.1253413687        5.9780755932       -9.2183117307  MEOH2     61              0.0000000000
       665        61  MEOH2     HO1            -7.6337874254        6.4763257529       -8.4330390570  MEOH2     61              0.0000000000
       666        61  MEOH2     HO2            -7.3972319257        6.3079351201       -9.8948367776  MEOH2     61              0.0000000000
       667        61  MEOH2     H1A            -9.3575644310        7.4616461906      -10.1913535565  MEOH2     61              0.0000000000
       668        61  MEOH2     H1B            -9.8813223204        6.9148967876       -8.5257034705  MEOH2     61              0.0000000000
       669        61  MEOH2     H1C           -10.0507672211        5.9190211276      -10.0036746669  MEOH2     61              0.0000000000
       670        61  MEOH2     LP1A           -8.0633517741        5.7802910753       -9.0006800007  MEOH2     61              0.0000000000
       671        61  MEOH2     LP1B           -7.7960733115        6.2408545591       -9.3866755974  MEOH2     61              0.0000000000
       672        62  MEOH2     C1              3.6226439049       -9.7835392717        5.2125149339  MEOH2     62              0.0000000000
       673        62  MEOH2     DC1             3.6116100113       -9.7929000397        5.2794206564  MEOH2     62              0.0000000000
       674        62  MEOH2     O1              2.8391347902       -9.5382893966        4.0346042311  MEOH2     62              0.0000000000
       675        62  MEOH2     DO1             2.7667874931       -9.6202241674        4.0956874872  MEOH2     62              0.0000000000
       676        62  MEOH2     HO1             3.3807218437       -9.7937442714        3.2715011770  MEOH2     62              0.0000000000
       677        62  MEOH2     HO2             3.0790191722       -8.6540847269        3.7159546029  MEOH2     62              0.0000000000
       678        62  MEOH2     H1A             3.9572546904       -8.8092044490        5.6284816112  MEOH2     62              0.0000000000
       679        62  MEOH2     H1B             4.5272084751      -10.3920150669        4.9984094775  MEOH2     62              0.0000000000
       680        62  MEOH2     H1C             2.9935779171      -10.3554643974        5.9277062604  MEOH2     62              0.0000000000
       681        62  MEOH2     LP1A            2.6488536027       -9.8214198222        3.9563084348  MEOH2     62              0.0000000000
       682        62  MEOH2     LP1B            2.8901192042       -9.2104924306        3.9230258343  MEOH2     62              0.0000000000
       683        63  MEOH2     C1              1.7427887128       -0.8826549606       -5.3806373881  MEOH2     63              0.0000000000
       684        63  MEOH2     DC1             1.6764827500       -0.8971395114       -5.3546074570  MEOH2     63              0.0000000000
       685        63  MEOH2     O1              2.5627785875       -0.3528745149       -4.3054698874  MEOH2     63              0.0000000000
       686        63  MEOH2     DO1             2.4971681871       -0.3575367661       -4.2831184100  MEOH2     63              0.0000000000
       687        63  MEOH2     HO1             3.4745189051       -0.6681716397       -4.4065506385  MEOH2     63              0.0000000000
       688        63  MEOH2     HO2             2.5264948959        0.6148234105       -4.2493965519  MEOH2     63              0.0000000000
       689        63  MEOH2     H1A             0.6580126323       -1.0556587533       -5.2143498547  MEOH2     63              0.0000000000
       690        63  MEOH2     H1B             2.2041910489       -1.8233753117       -5.7500614094  MEOH2     63              0.0000000000
       691        63  MEOH2     H1C             1.6750156029       -0.1623149176       -6.2237494978  MEOH2     63              0.0000000000
       692        63  MEOH2     LP1A            2.6965160839       -0.0430784532       -4.3984251576  MEOH2     63              0.0000000000
       693        63  MEOH2     LP1B            2.5550747155       -0.5698831865       -4.0309741920  MEOH2     63              0.0000000000
       694        64  MEOH2     C1             -6.9827517845       -0.3217170244        1.8315822385  MEOH2     64              0.0000000000
       695        64  MEOH2     DC1            -6.9721815837       -0.3055850750        1.7913761732  MEOH2     64              0.0000000000
       696        64  MEOH2     O1             -7.0017541613       -1.0517886737        3.0428865853  MEOH2     64              0.0000000000
       697        64  MEOH2     DO1            -6.9779353153       -1.0483467219        3.0205950842  MEOH2     64              0.0000000000
       698        64  MEOH2     HO1            -7.6249270258       -1.7942066583        3.0799151950  MEOH2     64              0.0000000000
       699        64  MEOH2     HO2            -6.3466665755       -0.7858665153        3.7069992727  MEOH2     64              0.0000000000
       700        64  MEOH2     H1A            -6.7247162378        0.7376057036        2.0450629506  MEOH2     64              0.0000000000
       701        64  MEOH2     H1B            -8.0004269291       -0.3431618643        1.3863874269  MEOH2     64              0.0000000000
       702        64  MEOH2     H1C            -6.2304732563       -0.6893615264        1.1013524553  MEOH2     64              0.0000000000
       703        64  MEOH2     LP1A           -6.7669466332       -1.3110223828        3.0301073507  MEOH2     64              0.0000000000
       704        64  MEOH2     LP1B           -7.2316560569       -0.9092389525        3.2649782227  MEOH2     64              0.0000000000
       705        65  MEOH2     C1              6.0229596254       -0.9642698612        1.9432021586  MEOH2     65              0.0000000000
       706        65  MEOH2     DC1             5.9644156076       -0.8739198514        1.9197655342  MEOH2     65              0.0000000000
       707        65  MEOH2     O1              5.8504551359       -2.2881821403        2.4459077933  MEOH2     65              0.0000000000
       708        65  MEOH2     DO1             5.7448023807       -2.2340971836        2.3935286235  MEOH2     65              0.0000000000
       709        65  MEOH2     HO1             6.5765145287       -2.8492644625        2.1313853191  MEOH2     65              0.0000000000
       710        65  MEOH2     HO2             5.8524729776       -2.2236262843        3.4137551314  MEOH2     65              0.0000000000
       711        65  MEOH2     H1A             5.1213873886       -0.6794800585        1.3597784098  MEOH2     65              0.0000000000
       712        65  MEOH2     H1B             6.9126724299       -0.9260015368        1.2789223524  MEOH2     65              0.0000000000
       713        65  MEOH2     H1C             6.1955281110       -0.2523550371        2.7784975568  MEOH2     65              0.0000000000
       714        65  MEOH2     LP1A            6.0071419812       -2.3193437333        2.7573210037  MEOH2     65              0.0000000000
       715        65  MEOH2     LP1B            5.6552202135       -2.4759102095        2.2242289781  MEOH2     65              0.0000000000
       716        66  MEOH2     C1             -6.9225586181       -9.4240038560       -6.8377616657  MEOH2     66              0.0000000000
       717        66  MEOH2     DC1            -6.9189640471       -9.4416885932       -6.8830872775  MEOH2     66              0.0000000000
       718        66  MEOH2     O1             -6.3459800074       -8.0910861864       -6.7856236377  MEOH2     66              0.0000000000
       719        66  MEOH2     DO1            -6.3417136631       -8.1251720299       -6.8544522716  MEOH2     66              0.0000000000
       720        66  MEOH2     HO1            -6.4346524815       -7.5429973181       -7.5810076864  MEOH2     66              0.0000000000
       721        66  MEOH2     HO2            -6.4291284348       -7.6002921038       -5.9530928521  MEOH2     66              0.0000000000
       722        66  MEOH2     H1A            -6.6158830268       -9.9929680674       -5.9341296555  MEOH2     66              0.0000000000
       723        66  MEOH2     H1B            -6.5593253187      -10.0278127301       -7.6967130122  MEOH2     66              0.0000000000
       724        66  MEOH2     H1C            -8.0332330927       -9.4207577460       -6.8110657035  MEOH2     66              0.0000000000
       725        66  MEOH2     LP1A           -6.5815712438       -7.8634879583       -6.6623523273  MEOH2     66              0.0000000000
       726        66  MEOH2     LP1B           -6.0119100419       -8.1010190209       -6.8895399353  MEOH2     66              0.0000000000
       727        67  MEOH2     C1             -8.1113813301        2.5370920079       -3.9455582997  MEOH2     67              0.0000000000
       728        67  MEOH2     DC1            -8.0899856845        2.5219300065       -3.9331460168  MEOH2     67              0.0000000000
       729        67  MEOH2     O1             -9.4291997905        2.0615725875       -4.2853302251  MEOH2     67              0.0000000000
       730        67  MEOH2     DO1            -9.4140619277        2.0571820686       -4.3166714606  MEOH2     67              0.0000000000
       731        67  MEOH2     HO1           -10.0510208201        2.3358642445       -3.5932300191  MEOH2     67              0.0000000000
       732        67  MEOH2     HO2            -9.6141732122        2.3065633366       -5.2054738910  MEOH2     67              0.0000000000
       733        67  MEOH2     H1A            -7.3384283341        1.9717052025       -4.5087655694  MEOH2     67              0.0000000000
       734        67  MEOH2     H1B            -7.8875788171        2.4083436252       -2.8649763772  MEOH2     67              0.0000000000
       735        67  MEOH2     H1C            -7.9865152893        3.6248072621       -4.1342511713  MEOH2     67              0.0000000000
       736        67  MEOH2     LP1A           -9.5951916972        2.2990102912       -4.4817227499  MEOH2     67              0.0000000000
       737        67  MEOH2     LP1B           -9.4778855904        1.7404314139       -4.1549536954  MEOH2     67              0.0000000000
       738        68  MEOH2     C1             -5.3675062959        3.9202175570       -3.1144215810  MEOH2     68              0.0000000000
       739        68  MEOH2     DC1            -5.4300424640        3.8949789075       -3.1272379343  MEOH2     68              0.0000000000
       740        68  MEOH2     O1             -4.3727999577        4.5039104183       -2.2585218771  MEOH2     68              0.0000000000
       741        68  MEOH2     DO1            -4.4666023662        4.4650090497       -2.2199561189  MEOH2     68              0.0000000000
       742        68  MEOH2     HO1            -3.4783647604        4.1878117816       -2.4609257592  MEOH2     68              0.0000000000
       743        68  MEOH2     HO2            -4.1765637956        5.4320395473       -2.4609266440  MEOH2     68              0.0000000000
       744        68  MEOH2     H1A            -6.2380665339        3.6279402327       -2.4891057902  MEOH2     68              0.0000000000
       745        68  MEOH2     H1B            -4.9911191738        3.0143227436       -3.6359657530  MEOH2     68              0.0000000000
       746        68  MEOH2     H1C            -5.7307065545        4.6327740635       -3.8855699441  MEOH2     68              0.0000000000
       747        68  MEOH2     LP1A           -4.2550516405        4.8024885412       -2.3981157104  MEOH2     68              0.0000000000
       748        68  MEOH2     LP1B           -4.3329008885        4.3086082863       -1.9708325628  MEOH2     68              0.0000000000
       749        69  MEOH2     C1              3.0228062415       -1.1130188226       -0.3131617552  MEOH2     69              0.0000000000
       750        69  MEOH2     DC1             3.0059625597       -1.0866843908       -0.2791945713  MEOH2     69              0.0000000000
       751        69  MEOH2     O1              2.1061653365       -2.1624957849       -0.0213870252  MEOH2     69              0.0000000000
       752        69  MEOH2     DO1             2.0681822343       -2.1204009997        0.0267821562  MEOH2     69              0.0000000000
       753        69  MEOH2     HO1             1.9428438621       -2.5896405382       -0.8768246067  MEOH2     69              0.0000000000
       754        69  MEOH2     HO2             2.6030781231       -2.8305881953        0.4762375466  MEOH2     69              0.0000000000
       755        69  MEOH2     H1A             2.9501709345       -0.2277959779        0.3542403945  MEOH2     69              0.0000000000
       756        69  MEOH2     H1B             2.8964684532       -0.7526916579       -1.3564853380  MEOH2     69              0.0000000000
       757        69  MEOH2     H1C             4.0781039866       -1.4603770730       -0.3163107105  MEOH2     69              0.0000000000
       758        69  MEOH2     LP1A            2.2807257970       -2.4539256813        0.0628582186  MEOH2     69              0.0000000000
       759        69  MEOH2     LP1B            1.7775239428       -2.0445383898       -0.0454886285  MEOH2     69              0.0000000000
       760        70  MEOH2     C1              0.8822932479        2.1876553120        9.3452598436  MEOH2     70              0.0000000000
       761        70  MEOH2     DC1             0.8347392761        2.1758500303        9.3530872833  MEOH2     70              0.0000000000
       762        70  MEOH2     O1              2.0521733320        1.3746681983        9.0810346749  MEOH2     70              0.0000000000
       763        70  MEOH2     DO1             2.0196916022        1.3678184216        9.0751711540  MEOH2     70              0.0000000000
       764        70  MEOH2     HO1             2.6566729972        1.8609207683        8.4987644680  MEOH2     70              0.0000000000
       765        70  MEOH2     HO2             2.4481935336        1.0461367037        9.9033089947  MEOH2     70              0.0000000000
       766        70  MEOH2     H1A             0.2114396391        1.7168743241       10.0953543037  MEOH2     70              0.0000000000
       767        70  MEOH2     H1B             0.3351089861        2.3610491025        8.3940264457  MEOH2     70              0.0000000000
       768        70  MEOH2     H1C             1.1412560920        3.1890758277        9.7507425165  MEOH2     70              0.0000000000
       769        70  MEOH2     LP1A            2.2959153621        1.4326356385        9.3254310715  MEOH2     70              0.0000000000
       770        70  MEOH2     LP1B            1.9974100372        1.1740045616        8.7995473991  MEOH2     70              0.0000000000
       771        71  MEOH2     C1              9.0558660167        5.1046808395       -9.6090427760  MEOH2     71              0.0000000000
       772        71  MEOH2     DC1             9.0685584045        5.1058282486       -9.5937216473  MEOH2     71              0.0000000000
       773        71  MEOH2     O1              8.4617655306        6.3369930281      -10.0211972962  MEOH2     71              0.0000000000
       774        71  MEOH2     DO1             8.4377971269        6.3037830298      -10.0373512148  MEOH2     71              0.0000000000
       775        71  MEOH2     HO1             7.9010134788        6.7039453767       -9.3199105430  MEOH2     71              0.0000000000
       776        71  MEOH2     HO2             9.1454526528        7.0218660127      -10.0876872536  MEOH2     71              0.0000000000
       777        71  MEOH2     H1A             9.6699491835        4.6351218480      -10.4070009314  MEOH2     71              0.0000000000
       778        71  MEOH2     H1B             8.2385911660        4.3815997118       -9.4003887501  MEOH2     71              0.0000000000
       779        71  MEOH2     H1C             9.7057836032        5.2490857768       -8.7196186103  MEOH2     71              0.0000000000
       780        71  MEOH2     LP1A            8.6726810402        6.6044235878       -9.9406023616  MEOH2     71              0.0000000000
       781        71  MEOH2     LP1B            8.1565765791        6.2752011885      -10.1810142930  MEOH2     71              0.0000000000
       782        72  MEOH2     C1              4.6781679460        2.4970666853        1.0035792728  MEOH2     72              0.0000000000
       783        72  MEOH2     DC1             4.6586074608        2.5241175488        0.9819010603  MEOH2     72              0.0000000000
       784        72  MEOH2     O1              5.6072760261        2.0053120927        1.9527160484  MEOH2     72              0.0000000000
       785        72  MEOH2     DO1             5.5103859351        2.0285766984        1.9774119095  MEOH2     72              0.0000000000
       786        72  MEOH2     HO1             6.1336552498        1.2539502912        1.6376281922  MEOH2     72              0.0000000000
       787        72  MEOH2     HO2             6.4656883129        2.4556546338        1.9876437206  MEOH2     72              0.0000000000
       788        72  MEOH2     H1A             4.1840894700        3.3977345583        1.4266689138  MEOH2     72              0.0000000000
       789        72  MEOH2     H1B             3.8666604412        1.7449618109        0.9030067691  MEOH2     72              0.0000000000
       790        72  MEOH2     H1C             5.0740075360        2.6512454154       -0.0229980211  MEOH2     72              0.0000000000
       791        72  MEOH2     LP1A            5.9115843688        2.1753906216        1.9215756153  MEOH2     72              0.0000000000
       792        72  MEOH2     LP1B            5.4565622659        1.7600658029        2.1518130595  MEOH2     72              0.0000000000
       793        73  MEOH2     C1              3.2698610388       -0.1820691616        3.3069016288  MEOH2     73              0.0000000000
       794        73  MEOH2     DC1             3.2238014810       -0.1428783770        3.2551850710  MEOH2     73              0.0000000000
       795        73  MEOH2     O1              3.1811070851       -1.5619512211        3.6674848742  MEOH2     73              0.0000000000
       796        73  MEOH2     DO1             3.0111858488       -1.5243074653        3.6265666099  MEOH2     73              0.0000000000
       797        73  MEOH2     HO1             3.9457261598       -1.6035776254        4.2629048210  MEOH2     73              0.0000000000
       798        73  MEOH2     HO2             3.7321966347       -2.1659334196        3.1455597722  MEOH2     73              0.0000000000
       799        73  MEOH2     H1A             3.3946024092       -0.0030783952        2.2175335103  MEOH2     73              0.0000000000
       800        73  MEOH2     H1B             4.1541023932        0.2441692122        3.8272467793  MEOH2     73              0.0000000000
       801        73  MEOH2     H1C             2.3827536291        0.3591470262        3.6998984258  MEOH2     73              0.0000000000
       802        73  MEOH2     LP1A            2.9755727731       -1.5993150650        3.9483043709  MEOH2     73              0.0000000000
       803        73  MEOH2     LP1B            3.3625159536       -1.7569298396        3.4403854230  MEOH2     73              0.0000000000
       804        74  MEOH2     C1             -5.3671944343       -3.1378078387        3.7921868133  MEOH2     74              0.0000000000
       805        74  MEOH2     DC1            -5.3799812340       -3.1015826253        3.7892926259  MEOH2     74              0.0000000000
       806        74  MEOH2     O1             -6.5490250833       -3.9214252673        3.4558493584  MEOH2     74              0.0000000000
       807        74  MEOH2     DO1            -6.5678362874       -3.8543702584        3.4069384073  MEOH2     74              0.0000000000
       808        74  MEOH2     HO1            -7.2563831393       -3.8499868129        4.1157289899  MEOH2     74              0.0000000000
       809        74  MEOH2     HO2            -6.2126629175       -4.8237540324        3.5723109107  MEOH2     74              0.0000000000
       810        74  MEOH2     H1A            -4.4477470122       -3.7614103439        3.7997601544  MEOH2     74              0.0000000000
       811        74  MEOH2     H1B            -5.4081670087       -2.5791300895        4.7516248898  MEOH2     74              0.0000000000
       812        74  MEOH2     H1C            -5.1732687489       -2.4094673326        2.9759552668  MEOH2     74              0.0000000000
       813        74  MEOH2     LP1A           -6.7683805834       -3.7298927836        3.2616884141  MEOH2     74              0.0000000000
       814        74  MEOH2     LP1B           -6.5187080380       -4.2452621202        3.5851187262  MEOH2     74              0.0000000000
       815        75  MEOH2     C1             -6.9278773680        5.6649803311       -1.1441774336  MEOH2     75              0.0000000000
       816        75  MEOH2     DC1            -6.8936447348        5.6393059543       -1.1596521015  MEOH2     75              0.0000000000
       817        75  MEOH2     O1             -6.2501180234        5.1063261525       -0.0179833962  MEOH2     75              0.0000000000
       818        75  MEOH2     DO1            -6.2259989304        5.0832165268       -0.0452652712  MEOH2     75              0.0000000000
       819        75  MEOH2     HO1            -6.7971118222        5.2760556494        0.7648893155  MEOH2     75              0.0000000000
       820        75  MEOH2     HO2            -5.7418847263        4.2986008376       -0.1917036646  MEOH2     75              0.0000000000
       821        75  MEOH2     H1A            -6.2860376644        5.9766852551       -1.9957658524  MEOH2     75              0.0000000000
       822        75  MEOH2     H1B            -7.3242671102        6.6504811941       -0.8186252529  MEOH2     75              0.0000000000
       823        75  MEOH2     H1C            -7.8290448945        5.1017422666       -1.4681851071  MEOH2     75              0.0000000000
       824        75  MEOH2     LP1A           -6.3454696337        4.7723918921        0.0255594580  MEOH2     75              0.0000000000
       825        75  MEOH2     LP1B           -6.0326489148        5.3430914302        0.1203979251  MEOH2     75              0.0000000000
       826        76  MEOH2     C1              4.8238420545        6.4082665094        4.6795598406  MEOH2     76              0.0000000000
       827        76  MEOH2     DC1             4.8189519031        6.3725999027        4.6150098796  MEOH2     76              0.0000000000
       828        76  MEOH2     O1              3.9532380107        5.9103353415        3.6482184419  MEOH2     76              0.0000000000
       829        76  MEOH2     DO1             3.9577710921        5.8469311215        3.5986960183  MEOH2     76              0.0000000000
       830        76  MEOH2     HO1             3.1750119908        5.6223687515        4.1505524992  MEOH2     76              0.0000000000
       831        76  MEOH2     HO2             3.7074826398        6.7094435686        3.1563542941  MEOH2     76              0.0000000000
       832        76  MEOH2     H1A             5.7732276236        6.8358209598        4.2920224439  MEOH2     76              0.0000000000
       833        76  MEOH2     H1B             5.0984606145        5.6535887975        5.4472623862  MEOH2     76              0.0000000000
       834        76  MEOH2     H1C             4.3113472884        7.2228539045        5.2346431605  MEOH2     76              0.0000000000
       835        76  MEOH2     LP1A            3.7526597207        6.1695412007        3.5254150539  MEOH2     76              0.0000000000
       836        76  MEOH2     LP1B            4.0168189851        5.5708705360        3.5914636578  MEOH2     76              0.0000000000
       837        77  MEOH2     C1              8.6688647768        4.1092850259       -6.6821131364  MEOH2     77              0.0000000000
       838        77  MEOH2     DC1             8.6724050178        4.1484167560       -6.6908271692  MEOH2     77              0.0000000000
       839        77  MEOH2     O1              9.4323625122        2.9994119592       -7.1976837600  MEOH2     77              0.0000000000
       840        77  MEOH2     DO1             9.4740453528        3.0449270210       -7.1726669911  MEOH2     77              0.0000000000
       841        77  MEOH2     HO1             9.0551911798        2.7274180187       -8.0489540367  MEOH2     77              0.0000000000
       842        77  MEOH2     HO2             9.3466441161        2.2530428719       -6.5840995829  MEOH2     77              0.0000000000
       843        77  MEOH2     H1A             8.1279336731        3.7505780906       -5.7804236792  MEOH2     77              0.0000000000
       844        77  MEOH2     H1B             7.8520660751        4.4362552543       -7.3605314093  MEOH2     77              0.0000000000
       845        77  MEOH2     H1C             9.3007805587        4.9727686811       -6.3831157714  MEOH2     77              0.0000000000
       846        77  MEOH2     LP1A            9.6989781151        3.1172416450       -7.3914162699  MEOH2     77              0.0000000000
       847        77  MEOH2     LP1B            9.2992694573        2.6977447696       -7.0802821185  MEOH2     77              0.0000000000
       848        78  MEOH2     C1             -7.3075594351        0.5499483509       -9.4924132071  MEOH2     78              0.0000000000
       849        78  MEOH2     DC1            -7.4038816675        0.4953626462       -9.4808589689  MEOH2     78              0.0000000000
       850        78  MEOH2     O1             -8.3638163651       -0.4090921899       -9.4714826845  MEOH2     78              0.0000000000
       851        78  MEOH2     DO1            -8.3997472539       -0.4866653032       -9.4462576915  MEOH2     78              0.0000000000
       852        78  MEOH2     HO1            -8.9210073779       -0.1323633046       -8.7272654448  MEOH2     78              0.0000000000
       853        78  MEOH2     HO2            -8.6980030199       -0.3602512460      -10.3807867277  MEOH2     78              0.0000000000
       854        78  MEOH2     H1A            -6.4636453704        0.2772952678      -10.1615845964  MEOH2     78              0.0000000000
       855        78  MEOH2     H1B            -6.8557469835        0.7885381347       -8.5058730785  MEOH2     78              0.0000000000
       856        78  MEOH2     H1C            -7.6239946685        1.5040505146       -9.9655715384  MEOH2     78              0.0000000000
       857        78  MEOH2     LP1A           -8.6264235257       -0.3024440776       -9.6768205995  MEOH2     78              0.0000000000
       858        78  MEOH2     LP1B           -8.2737857226       -0.6819861137       -9.2716743020  MEOH2     78              0.0000000000
       859        79  MEOH2     C1             -3.0793254135       -5.6008718132       -1.0915972343  MEOH2     79              0.0000000000
       860        79  MEOH2     DC1            -3.1050189773       -5.5909274900       -1.0957707103  MEOH2     79              0.0000000000
       861        79  MEOH2     O1             -2.1772966046       -6.6930862201       -0.9164131594  MEOH2     79              0.0000000000
       862        79  MEOH2     DO1            -2.2191075115       -6.6685949399       -0.9089393906  MEOH2     79              0.0000000000
       863        79  MEOH2     HO1            -2.2563624711       -7.1984433984       -0.0922392020  MEOH2     79              0.0000000000
       864        79  MEOH2     HO2            -1.7727397393       -7.1267168625       -1.6840056361  MEOH2     79              0.0000000000
       865        79  MEOH2     H1A            -2.8343993778       -4.9457462901       -1.9548137701  MEOH2     79              0.0000000000
       866        79  MEOH2     H1B            -2.9969999115       -4.9013253079       -0.2324242595  MEOH2     79              0.0000000000
       867        79  MEOH2     H1C            -4.1090716133       -5.9985564926       -1.2172581305  MEOH2     79              0.0000000000
       868        79  MEOH2     LP1A           -2.3153310112       -6.9851327055       -1.0511549604  MEOH2     79              0.0000000000
       869        79  MEOH2     LP1B           -1.8832409402       -6.5819842840       -0.7625053102  MEOH2     79              0.0000000000
       870        80  MEOH2     C1              9.6376104015       -1.1789244918       -7.1000918585  MEOH2     80              0.0000000000
       871        80  MEOH2     DC1             9.6730674102       -1.2017945058       -7.1406518201  MEOH2     80              0.0000000000
       872        80  MEOH2     O1              9.1222188948       -0.0674606470       -6.3126566199  MEOH2     80              0.0000000000
       873        80  MEOH2     DO1             9.1790666529        0.0171869200       -6.3802648813  MEOH2     80              0.0000000000
       874        80  MEOH2     HO1             9.3838895543       -0.3484182541       -5.4218753395  MEOH2     80              0.0000000000
       875        80  MEOH2     HO2             8.1688296096       -0.2458326769       -6.3241583534  MEOH2     80              0.0000000000
       876        80  MEOH2     H1A             8.7829049262       -1.7717744895       -7.4903846113  MEOH2     80              0.0000000000
       877        80  MEOH2     H1B            10.1870729017       -1.8896169629       -6.4463884295  MEOH2     80              0.0000000000
       878        80  MEOH2     H1C            10.2697212527       -0.8576103289       -7.9553778227  MEOH2     80              0.0000000000
       879        80  MEOH2     LP1A            9.3645585181        0.1837915086       -6.2872821968  MEOH2     80              0.0000000000
       880        80  MEOH2     LP1B            8.7912622344       -0.1310154539       -6.2181660096  MEOH2     80              0.0000000000
       881        81  MEOH2     C1              0.1543703847        6.4603007972       -3.5432268567  MEOH2     81              0.0000000000
       882        81  MEOH2     DC1             0.1124908321        6.4896228877       -3.5301799547  MEOH2     81              0.0000000000
       883        81  MEOH2     O1              0.7747543615        7.7236613882       -3.2865251415  MEOH2     81              0.0000000000
       884        81  MEOH2     DO1             0.7477952988        7.7643530105       -3.2591032522  MEOH2     81              0.0000000000
       885        81  MEOH2     HO1             0.9090352628        8.0903279200       -4.1744577374  MEOH2     81              0.0000000000
       886        81  MEOH2     HO2             1.5502526087        7.4635996495       -2.7651132485  MEOH2     81              0.0000000000
       887        81  MEOH2     H1A             0.2684355693        5.7376851507       -2.7070828727  MEOH2     81              0.0000000000
       888        81  MEOH2     H1B             0.5800148648        5.9959790915       -4.4584061465  MEOH2     81              0.0000000000
       889        81  MEOH2     H1C            -0.9448405912        6.5735493515       -3.6582529193  MEOH2     81              0.0000000000
       890        81  MEOH2     LP1A            0.5304075524        7.9708400035       -3.2453260032  MEOH2     81              0.0000000000
       891        81  MEOH2     LP1B            1.1224592338        7.6858294405       -3.2734842231  MEOH2     81              0.0000000000
       892        82  MEOH2     C1              8.4898349852        4.2740416488       -0.4298724779  MEOH2     82              0.0000000000
       893        82  MEOH2     DC1             8.5036492041        4.3196259485       -0.4426341379  MEOH2     82              0.0000000000
       894        82  MEOH2     O1              7.3045240442        3.5560071539       -0.0814749488  MEOH2     82              0.0000000000
       895        82  MEOH2     DO1             7.2700819475        3.5839755150       -0.0860708512  MEOH2     82              0.0000000000
       896        82  MEOH2     HO1             6.9524190741        3.8677755331        0.7668896948  MEOH2     82              0.0000000000
       897        82  MEOH2     HO2             6.9568510218        3.0807729039       -0.8523029953  MEOH2     82              0.0000000000
       898        82  MEOH2     H1A             9.2342678826        3.6341532480       -0.9501449987  MEOH2     82              0.0000000000
       899        82  MEOH2     H1B             9.1201827197        4.6222943977        0.4161196963  MEOH2     82              0.0000000000
       900        82  MEOH2     H1C             8.1848570482        5.1437419597       -1.0503004173  MEOH2     82              0.0000000000
       901        82  MEOH2     LP1A            7.0236659046        3.7166584132       -0.2149286049  MEOH2     82              0.0000000000
       902        82  MEOH2     LP1B            7.3876523442        3.2689343691        0.1006758183  MEOH2     82              0.0000000000
       903        83  MEOH2     C1              6.6000035577        1.5601374368       -5.3128974403  MEOH2     83              0.0000000000
       904        83  MEOH2     DC1             6.6206376151        1.5790638097       -5.3443758172  MEOH2     83              0.0000000000
       905        83  MEOH2     O1              6.5327876781        2.1034465111       -6.6337756010  MEOH2     83              0.0000000000
       906        83  MEOH2     DO1             6.6260440823        2.1683439939       -6.6278581959  MEOH2     83              0.0000000000
       907        83  MEOH2     HO1             5.8761791780        2.8137292393       -6.5612240760  MEOH2     83              0.0000000000
       908        83  MEOH2     HO2             6.1568815157        1.4166620825       -7.2064200859  MEOH2     83              0.0000000000
       909        83  MEOH2     H1A             6.0459661342        0.6107244494       -5.1517189231  MEOH2     83              0.0000000000
       910        83  MEOH2     H1B             6.1386059464        2.1676334557       -4.5051958668  MEOH2     83              0.0000000000
       911        83  MEOH2     H1C             7.6752670152        1.4628312304       -5.0508650012  MEOH2     83              0.0000000000
       912        83  MEOH2     LP1A            6.7699262767        2.3582148426       -6.6706318391  MEOH2     83              0.0000000000
       913        83  MEOH2     LP1B            6.2922672091        1.9320725963       -6.8216076678  MEOH2     83              0.0000000000
       914        84  MEOH2     C1             -3.9009373843       -9.4101240598       -5.6393467379  MEOH2     84              0.0000000000
       915        84  MEOH2     DC1            -3.9352468990       -9.4349378843       -5.7126613933  MEOH2     84              0.0000000000
       916        84  MEOH2     O1             -3.4797768508       -8.0214780254       -5.7557441982  MEOH2     84              0.0000000000
       917        84  MEOH2     DO1            -3.4968662114       -8.0421908238       -5.8643760479  MEOH2     84              0.0000000000
       918        84  MEOH2     HO1            -4.1940150582       -7.4296678789       -5.4719757450  MEOH2     84              0.0000000000
       919        84  MEOH2     HO2            -2.9154652626       -7.9168192319       -4.9737602028  MEOH2     84              0.0000000000
       920        84  MEOH2     H1A            -3.0121754861      -10.0459661341       -5.4390266267  MEOH2     84              0.0000000000
       921        84  MEOH2     H1B            -4.4009921486       -9.8408781987       -6.5330564814  MEOH2     84              0.0000000000
       922        84  MEOH2     H1C            -4.5494038791       -9.5389082407       -4.7464711361  MEOH2     84              0.0000000000
       923        84  MEOH2     LP1A           -3.3251447704       -7.9180334105       -5.4592848732  MEOH2     84              0.0000000000
       924        84  MEOH2     LP1B           -3.5549143464       -7.8999787116       -6.0752630138  MEOH2     84              0.0000000000
       925        85  MEOH2     C1              5.2520855274       -7.9707194034       -9.7188376292  MEOH2     85              0.0000000000
       926        85  MEOH2     DC1             5.2436495964       -8.0442103315       -9.7318527884  MEOH2     85              0.0000000000
       927        85  MEOH2     O1              5.3420975223       -9.4132362945       -9.5660186023  MEOH2     85              0.0000000000
       928        85  MEOH2     DO1             5.3235749831       -9.4561564564       -9.5692078372  MEOH2     85              0.0000000000
       929        85  MEOH2     HO1             5.5149800584       -9.6171713844       -8.6335905303  MEOH2     85              0.0000000000
       930        85  MEOH2     HO2             4.7753781784       -9.8890084112      -10.1932108203  MEOH2     85              0.0000000000
       931        85  MEOH2     H1A             5.3210673496       -7.5210130234      -10.7324088805  MEOH2     85              0.0000000000
       932        85  MEOH2     H1B             6.1322764954       -7.5351616400       -9.1993433599  MEOH2     85              0.0000000000
       933        85  MEOH2     H1C             4.3862616696       -7.5038515210       -9.2024032889  MEOH2     85              0.0000000000
       934        85  MEOH2     LP1A            5.0249786174       -9.5468672276       -9.5021564546  MEOH2     85              0.0000000000
       935        85  MEOH2     LP1B            5.6721246134       -9.5185408957       -9.6159491548  MEOH2     85              0.0000000000
       936        86  MEOH2     C1             -8.3685671271        9.8829572460       -9.2596062555  MEOH2     86              0.0000000000
       937        86  MEOH2     DC1            -8.3892820517        9.8862388504       -9.2574445811  MEOH2     86              0.0000000000
       938        86  MEOH2     O1             -9.7980922386        9.9880118655       -9.1387564286  MEOH2     86              0.0000000000
       939        86  MEOH2     DO1            -9.8009358181        9.9773881623       -9.1411020037  MEOH2     86              0.0000000000
       940        86  MEOH2     HO1           -10.2141588686        9.7480602992       -9.9814970806  MEOH2     86              0.0000000000
       941        86  MEOH2     HO2           -10.0866876441        9.5777919163       -8.3084960558  MEOH2     86              0.0000000000
       942        86  MEOH2     H1A            -7.8241863947       10.1313200065       -8.3235044673  MEOH2     86              0.0000000000
       943        86  MEOH2     H1B            -7.8930199452       10.4213573630      -10.1071327694  MEOH2     86              0.0000000000
       944        86  MEOH2     H1C            -8.1492374190        8.8191030864       -9.4929082209  MEOH2     86              0.0000000000
       945        86  MEOH2     LP1A           -9.9313644067        9.6844728003       -9.0264952817  MEOH2     86              0.0000000000
       946        86  MEOH2     LP1B           -9.9015787522       10.3123484393       -9.2199742121  MEOH2     86              0.0000000000
       947        87  MEOH2     C1              9.7518530838        6.9847635675       -1.7774304950  MEOH2     87              0.0000000000
       948        87  MEOH2     DC1             9.7568367795        6.9710847252       -1.8038290451  MEOH2     87              0.0000000000
       949        87  MEOH2     O1              9.9739063968        7.4585182053       -0.4404145366  MEOH2     87              0.0000000000
       950        87  MEOH2     DO1             9.9959804295        7.4156616657       -0.4622211927  MEOH2     87              0.0000000000
       951        87  MEOH2     HO1             9.5789234952        8.3432180294       -0.3935665866  MEOH2     87              0.0000000000
       952        87  MEOH2     HO2             9.5712105953        6.8642129418        0.2119176990  MEOH2     87              0.0000000000
       953        87  MEOH2     H1A            10.1068892980        5.9437036844       -1.9338421547  MEOH2     87              0.0000000000
       954        87  MEOH2     H1B            10.2087125579        7.6332730625       -2.5552710042  MEOH2     87              0.0000000000
       955        87  MEOH2     H1C             8.6549899548        7.0134297807       -1.9517592783  MEOH2     87              0.0000000000
       956        87  MEOH2     LP1A            9.7093826419        7.3605483275       -0.2332211822  MEOH2     87              0.0000000000
       957        87  MEOH2     LP1B           10.2808556810        7.6256888689       -0.4220813385  MEOH2     87              0.0000000000
       958        88  MEOH2     C1             -8.4957635627       -9.1918623789        9.4915290574  MEOH2     88              0.0000000000
       959        88  MEOH2     DC1            -8.4526285178       -9.1772322558        9.5158017625  MEOH2     88              0.0000000000
       960        88  MEOH2     O1             -9.8126328013       -9.6506593763        9.1259894470  MEOH2     88              0.0000000000
       961        88  MEOH2     DO1            -9.7916794610       -9.6322873771        9.1733303727  MEOH2     88              0.0000000000
       962        88  MEOH2     HO1           -10.2591302517      -10.2317904556        9.7614630473  MEOH2     88              0.0000000000
       963        88  MEOH2     HO2            -9.9195476610       -9.6719509700        8.1621347471  MEOH2     88              0.0000000000
       964        88  MEOH2     H1A            -7.9674718747       -8.9131245872        8.5547611373  MEOH2     88              0.0000000000
       965        88  MEOH2     H1B            -7.8926499611       -9.9529276118       10.0313018759  MEOH2     88              0.0000000000
       966        88  MEOH2     H1C            -8.5352208103       -8.2740698701       10.1163658658  MEOH2     88              0.0000000000
       967        88  MEOH2     LP1A          -10.0539806934       -9.4232131805        9.2378796743  MEOH2     88              0.0000000000
       968        88  MEOH2     LP1B           -9.7892922335       -9.9484350205        8.9435479945  MEOH2     88              0.0000000000
       969        89  MEOH2     C1             -4.0964214303       -8.1841329950       -9.3218875868  MEOH2     89              0.0000000000
       970        89  MEOH2     DC1            -4.1192213076       -8.2317808766       -9.3127213108  MEOH2     89              0.0000000000
       971        89  MEOH2     O1             -4.7154552865       -9.4743928558       -9.4214675330  MEOH2     89              0.0000000000
       972        89  MEOH2     DO1            -4.7625447347       -9.4850762960       -9.4038185719  MEOH2     89              0.0000000000
       973        89  MEOH2     HO1            -4.4079947457      -10.0633817569       -8.7147426288  MEOH2     89              0.0000000000
       974        89  MEOH2     HO2            -5.6405033116       -9.3535484893       -9.6871417549  MEOH2     89              0.0000000000
       975        89  MEOH2     H1A            -4.3229495188       -7.5614830981      -10.2136908907  MEOH2     89              0.0000000000
       976        89  MEOH2     H1B            -2.9857871334       -8.1783268091       -9.3497936238  MEOH2     89              0.0000000000
       977        89  MEOH2     H1C            -4.3619823812       -7.6497381587       -8.3847533692  MEOH2     89              0.0000000000
       978        89  MEOH2     LP1A           -5.0157253340       -9.4773003679       -9.2416636262  MEOH2     89              0.0000000000
       979        89  MEOH2     LP1B           -4.5243002506       -9.6833218842       -9.6271576236  MEOH2     89              0.0000000000
       980        90  MEOH2     C1             -9.5620712058       -6.4067037657       -6.4668673788  MEOH2     90              0.0000000000
       981        90  MEOH2     DC1            -9.5317450722       -6.4029101772       -6.5577118720  MEOH2     90              0.0000000000
       982        90  MEOH2     O1             -9.8101759236       -6.9372591231       -5.1620042557  MEOH2     90              0.0000000000
       983        90  MEOH2     DO1            -9.8007086181       -6.9571834908       -5.2440599293  MEOH2     90              0.0000000000
       984        90  MEOH2     HO1            -9.9523193506       -7.8966394381       -5.1451324110  MEOH2     90              0.0000000000
       985        90  MEOH2     HO2            -9.3637501586       -6.4898950339       -4.4261582057  MEOH2     90              0.0000000000
       986        90  MEOH2     H1A            -9.5586753035       -5.3017464169       -6.3512009301  MEOH2     90              0.0000000000
       987        90  MEOH2     H1B           -10.3640386123       -6.6596803865       -7.1929335674  MEOH2     90              0.0000000000
       988        90  MEOH2     H1C            -8.5779455495       -6.7819995112       -6.8203794668  MEOH2     90              0.0000000000
       989        90  MEOH2     LP1A           -9.5077587986       -7.0234671648       -5.0083421066  MEOH2     90              0.0000000000
       990        90  MEOH2     LP1B          -10.1531707024       -6.9293268178       -5.0927824366  MEOH2     90              0.0000000000
       991        91  MEOH2     C1             -8.4205334377       -1.1355111448       -6.5012050741  MEOH2     91              0.0000000000
       992        91  MEOH2     DC1            -8.4091979657       -1.1212705013       -6.5579262414  MEOH2     91              0.0000000000
       993        91  MEOH2     O1             -9.5426455879       -0.5682612108       -5.7709052228  MEOH2     91              0.0000000000
       994        91  MEOH2     DO1            -9.4983002311       -0.4831554663       -5.8100390109  MEOH2     91              0.0000000000
       995        91  MEOH2     HO1           -10.2117344578       -0.1572597967       -6.3403768403  MEOH2     91              0.0000000000
       996        91  MEOH2     HO2            -9.8613194041       -1.3292382105       -5.2607473982  MEOH2     91              0.0000000000
       997        91  MEOH2     H1A            -7.9333751625       -1.8808085988       -5.8367281969  MEOH2     91              0.0000000000
       998        91  MEOH2     H1B            -7.5953667888       -0.4283664196       -6.7322187979  MEOH2     91              0.0000000000
       999        91  MEOH2     H1C            -8.7478813256       -1.7757129749       -7.3481442568  MEOH2     91              0.0000000000
      1000        91  MEOH2     LP1A           -9.7913898312       -0.8104718183       -5.7266296870  MEOH2     91              0.0000000000
      1001        91  MEOH2     LP1B           -9.4739083370       -0.2359943373       -5.6850337195  MEOH2     91              0.0000000000
      1002        92  MEOH2     C1              1.9721577381        1.6297925379       -1.4165680909  MEOH2     92              0.0000000000
      1003        92  MEOH2     DC1             1.9613752122        1.6143716500       -1.4052958546  MEOH2     92              0.0000000000
      1004        92  MEOH2     O1              1.0438106209        0.9179734069       -0.5886693023  MEOH2     92              0.0000000000
      1005        92  MEOH2     DO1             1.0324042993        0.8893984134       -0.5778298781  MEOH2     92              0.0000000000
      1006        92  MEOH2     HO1             1.0216976455        1.4619560291        0.2141344870  MEOH2     92              0.0000000000
      1007        92  MEOH2     HO2             0.2746846644        0.7347777069       -1.1506164515  MEOH2     92              0.0000000000
      1008        92  MEOH2     H1A             1.9069796410        1.2188914585       -2.4467297871  MEOH2     92              0.0000000000
      1009        92  MEOH2     H1B             3.0179928715        1.5324145312       -1.0545357751  MEOH2     92              0.0000000000
      1010        92  MEOH2     H1C             1.7773285941        2.7234179780       -1.3979669549  MEOH2     92              0.0000000000
      1011        92  MEOH2     LP1A            0.7181260215        1.0306529866       -0.6497663897  MEOH2     92              0.0000000000
      1012        92  MEOH2     LP1B            1.2130473586        0.6785392847       -0.3975404774  MEOH2     92              0.0000000000
      1013        93  MEOH2     C1             -7.0428980964       -5.2219708434       -7.9608686659  MEOH2     93              0.0000000000
      1014        93  MEOH2     DC1            -7.1104449939       -5.2293040975       -7.9655172602  MEOH2     93              0.0000000000
      1015        93  MEOH2     O1             -7.0979276621       -5.8388212715       -9.2514562218  MEOH2     93              0.0000000000
      1016        93  MEOH2     DO1            -7.2158707665       -5.8775490328       -9.2563514893  MEOH2     93              0.0000000000
      1017        93  MEOH2     HO1            -6.1433276081       -5.7306639792       -9.3853992620  MEOH2     93              0.0000000000
      1018        93  MEOH2     HO2            -7.4195401544       -6.7499848336       -9.1663306177  MEOH2     93              0.0000000000
      1019        93  MEOH2     H1A            -7.9180084912       -4.8060417469       -7.4172642279  MEOH2     93              0.0000000000
      1020        93  MEOH2     H1B            -6.4183759065       -4.3213961679       -8.1432372228  MEOH2     93              0.0000000000
      1021        93  MEOH2     H1C            -6.2663495703       -5.7531502176       -7.3699863930  MEOH2     93              0.0000000000
      1022        93  MEOH2     LP1A           -7.0555268631       -6.1848740836       -9.2206402605  MEOH2     93              0.0000000000
      1023        93  MEOH2     LP1B           -7.1608552450       -5.5974080980       -9.4969349357  MEOH2     93              0.0000000000
      1024        94  MEOH2     C1             -5.6397152357       10.0569283831        2.5023878939  MEOH2     94              0.0000000000
      1025        94  MEOH2     DC1            -5.6464891751       10.0685480304        2.4589933802  MEOH2     94              0.0000000000
      1026        94  MEOH2     O1             -7.0063429578        9.9166362699        2.9796402810  MEOH2     94              0.0000000000
      1027        94  MEOH2     DO1            -7.0410423874        9.9613692490        2.9161486429  MEOH2     94              0.0000000000
      1028        94  MEOH2     HO1            -7.3760839370        9.1461901144        2.5207238071  MEOH2     94              0.0000000000
      1029        94  MEOH2     HO2            -6.8876225752        9.5004719384        3.8477489841  MEOH2     94              0.0000000000
      1030        94  MEOH2     H1A            -4.9589109376       10.3866278215        3.3160984010  MEOH2     94              0.0000000000
      1031        94  MEOH2     H1B            -5.4926949204       10.7019476055        1.6098318847  MEOH2     94              0.0000000000
      1032        94  MEOH2     H1C            -5.2654832349        9.0350455780        2.2787208551  MEOH2     94              0.0000000000
      1033        94  MEOH2     LP1A           -7.0132201036        9.7145691489        3.2653351943  MEOH2     94              0.0000000000
      1034        94  MEOH2     LP1B           -7.2230230107       10.1047829541        2.7792641848  MEOH2     94              0.0000000000
      1035        95  MEOH2     C1              2.0434634403        5.2033085486       -6.6319065856  MEOH2     95              0.0000000000
      1036        95  MEOH2     DC1             2.0461862296        5.2309145511       -6.5955828904  MEOH2     95              0.0000000000
      1037        95  MEOH2     O1              2.7630397119        4.9721773698       -5.4166102904  MEOH2     95              0.0000000000
      1038        95  MEOH2     DO1             2.7683727726        5.0254844432       -5.4018093467  MEOH2     95              0.0000000000
      1039        95  MEOH2     HO1             3.4588892161        4.3329582229       -5.6359099721  MEOH2     95              0.0000000000
      1040        95  MEOH2     HO2             2.1811819225        4.5996966242       -4.7357287972  MEOH2     95              0.0000000000
      1041        95  MEOH2     H1A             0.9490817004        5.0147931693       -6.5985665324  MEOH2     95              0.0000000000
      1042        95  MEOH2     H1B             2.4339697973        4.5569677454       -7.4468110910  MEOH2     95              0.0000000000
      1043        95  MEOH2     H1C             2.1823883219        6.2597508991       -6.9464704735  MEOH2     95              0.0000000000
      1044        95  MEOH2     LP1A            3.0236682078        5.2037604326       -5.3859170969  MEOH2     95              0.0000000000
      1045        95  MEOH2     LP1B            2.6158745255        4.7092667890       -5.2385079758  MEOH2     95              0.0000000000
      1046        96  MEOH2     C1              2.1683163797        9.1751007817       -1.2195459744  MEOH2     96              0.0000000000
      1047        96  MEOH2     DC1             2.1282552967        9.1825765675       -1.2587214074  MEOH2     96              0.0000000000
      1048        96  MEOH2     O1              1.1688755190       10.1304835888       -0.9351176347  MEOH2     96              0.0000000000
      1049        96  MEOH2     DO1             1.1553021512       10.1493779170       -0.9707927203  MEOH2     96              0.0000000000
      1050        96  MEOH2     HO1             0.3968878878        9.9657959005       -1.4988667484  MEOH2     96              0.0000000000
      1051        96  MEOH2     HO2             1.0565968636       10.0496686724        0.0249669726  MEOH2     96              0.0000000000
      1052        96  MEOH2     H1A             3.0360623725        9.3877130042       -0.5591416011  MEOH2     96              0.0000000000
      1053        96  MEOH2     H1B             2.5836458085        9.2695792041       -2.2456533246  MEOH2     96              0.0000000000
      1054        96  MEOH2     H1C             1.8975399528        8.1148976078       -1.0272692020  MEOH2     96              0.0000000000
      1055        96  MEOH2     LP1A            0.9623526245       10.0145799562       -0.6774072507  MEOH2     96              0.0000000000
      1056        96  MEOH2     LP1B            1.2127133904       10.4132235917       -1.1367021871  MEOH2     96              0.0000000000
      1057        97  MEOH2     C1             -8.8839866676       -5.5127544778        8.9938598185  MEOH2     97              0.0000000000
      1058        97  MEOH2     DC1            -8.8865536365       -5.5189730297        9.0072814873  MEOH2     97              0.0000000000
      1059        97  MEOH2     O1             -9.8465033666       -6.5897772127        9.0679480948  MEOH2     97              0.0000000000
      1060        97  MEOH2     DO1            -9.8147055345       -6.6168921756        9.0958389650  MEOH2     97              0.0000000000
      1061        97  MEOH2     HO1           -10.1152811893       -6.8453338626        8.1716505535  MEOH2     97              0.0000000000
      1062        97  MEOH2     HO2           -10.5306042006       -6.4077684488        9.7311063405  MEOH2     97              0.0000000000
      1063        97  MEOH2     H1A            -9.1828294566       -4.5910105302        9.5373688655  MEOH2     97              0.0000000000
      1064        97  MEOH2     H1B            -8.7915066906       -5.2289600779        7.9237060013  MEOH2     97              0.0000000000
      1065        97  MEOH2     H1C            -7.8677504948       -5.7965267103        9.3417942418  MEOH2     97              0.0000000000
      1066        97  MEOH2     LP1A           -9.6811370160       -6.8982458093        9.0689945152  MEOH2     97              0.0000000000
      1067        97  MEOH2     LP1B          -10.1705223106       -6.4594026826        9.0906242015  MEOH2     97              0.0000000000
      1068        98  MEOH2     C1              9.5377139939        9.2886019064        4.3276297331  MEOH2     98              0.0000000000
      1069        98  MEOH2     DC1             9.5667610973        9.2658094915        4.3041395817  MEOH2     98              0.0000000000
      1070        98  MEOH2     O1              9.9384231609        9.5233553528        5.6952113340  MEOH2     98              0.0000000000
      1071        98  MEOH2     DO1            10.0094249288        9.5391024282        5.6652752428  MEOH2     98              0.0000000000
      1072        98  MEOH2     HO1             9.0987529998        9.8319517753        6.0702076920  MEOH2     98              0.0000000000
      1073        98  MEOH2     HO2             9.8277808743        8.7016514746        6.1986604594  MEOH2     98              0.0000000000
      1074        98  MEOH2     H1A            10.2109459318        8.6197337734        3.7499661805  MEOH2     98              0.0000000000
      1075        98  MEOH2     H1B             9.3879937533       10.2511802747        3.7934502354  MEOH2     98              0.0000000000
      1076        98  MEOH2     H1C             8.5211886175        8.8402769559        4.3290080228  MEOH2     98              0.0000000000
      1077        98  MEOH2     LP1A            9.8973064744        9.2313884798        5.8837975561  MEOH2     98              0.0000000000
      1078        98  MEOH2     LP1B           10.0566368986        9.8508620363        5.7307765490  MEOH2     98              0.0000000000
      1079        99  MEOH2     C1              3.1282157400        9.5365764546       -9.7514941452  MEOH2     99              0.0000000000
      1080        99  MEOH2     DC1             3.1216302994        9.5461751979       -9.7314274153  MEOH2     99              0.0000000000
      1081        99  MEOH2     O1              3.1706630850        9.4284061060       -8.3038452678  MEOH2     99              0.0000000000
      1082        99  MEOH2     DO1             3.1756529304        9.4410784000       -8.2693450112  MEOH2     99              0.0000000000
      1083        99  MEOH2     HO1             2.2858656122        9.1468080136       -8.0232460011  MEOH2     99              0.0000000000
      1084        99  MEOH2     HO2             3.9259664835        8.8433262271       -8.1362197575  MEOH2     99              0.0000000000
      1085        99  MEOH2     H1A             4.1327658990        9.6236400382      -10.2179916400  MEOH2     99              0.0000000000
      1086        99  MEOH2     H1B             2.4975092219       10.3870694180      -10.0879343454  MEOH2     99              0.0000000000
      1087        99  MEOH2     H1C             2.6722450402        8.6278818947      -10.1994739654  MEOH2     99              0.0000000000
      1088        99  MEOH2     LP1A            3.2715076817        9.1064323918       -8.2107684466  MEOH2     99              0.0000000000
      1089        99  MEOH2     LP1B            3.0878340341        9.7357703129       -8.1583578365  MEOH2     99              0.0000000000
      1090       100  MEOH2     C1             -2.1519185150        4.2702087893        9.6536125003  MEOH2     100             0.0000000000
      1091       100  MEOH2     DC1            -2.2087519407        4.1912265623        9.6601821754  MEOH2     100             0.0000000000
      1092       100  MEOH2     O1             -1.2328508237        5.3513582592        9.9192579247  MEOH2     100             0.0000000000
      1093       100  MEOH2     DO1            -1.2642853113        5.2803171466        9.9478427313  MEOH2     100             0.0000000000
      1094       100  MEOH2     HO1            -0.5409359137        5.3344615499        9.2396490228  MEOH2     100             0.0000000000
      1095       100  MEOH2     HO2            -1.6453757424        6.2292099741        9.9292358118  MEOH2     100             0.0000000000
      1096       100  MEOH2     H1A            -2.8638770122        4.0906111856       10.4873875294  MEOH2     100             0.0000000000
      1097       100  MEOH2     H1B            -1.5616809450        3.3540397151        9.4378004534  MEOH2     100             0.0000000000
      1098       100  MEOH2     H1C            -2.7022079181        4.4994067712        8.7160780430  MEOH2     100             0.0000000000
      1099       100  MEOH2     LP1A           -1.3402597123        5.6423474043        9.7571201805  MEOH2     100             0.0000000000
      1100       100  MEOH2     LP1B           -0.9792428923        5.2427010802       10.1346102746  MEOH2     100             0.0000000000
      1101       101  OAC       C1              1.7045892408        2.8350175283       -4.2616233393  OAC       1               0.0000000000
      1102       101  OAC       DC1             1.6967896253        2.9155825660       -4.2158848319  OAC       1               0.0000000000
      1103       101  OAC       C2              0.7560160928        2.3455310353       -5.2137654889  OAC       1               0.0000000000
      1104       101  OAC       DC2             0.7878502806        2.3637268303       -5.1341019675  OAC       1               0.0000000000
      1105       101  OAC       H1              1.1227705275        2.6050375455       -6.2298700882  OAC       1               0.0000000000
      1106       101  OAC       H2             -0.2381995164        2.8228593986       -5.0795494081  OAC       1               0.0000000000
      1107       101  OAC       H3              0.6055570254        1.2535635093       -5.0748770684  OAC       1               0.0000000000
      1108       101  OAC       O1              1.1837107318        3.7403193959       -3.6022143223  OAC       1               0.0000000000
      1109       101  OAC       DO1             1.1532585061        3.7875043497       -3.6038216847  OAC       1               0.0000000000
      1110       101  OAC       O2              2.8962710619        2.4647041836       -4.2267137904  OAC       1               0.0000000000
      1111       101  OAC       DO2             2.8477323956        2.4518588977       -4.2417751786  OAC       1               0.0000000000
      1112       101  OAC       H               3.4014767518        2.7883304264       -3.4657970627  OAC       1               0.0000000000
      1113       101  OAC       LPO11           0.8545603626        3.7922515899       -3.7092801046  OAC       1               0.0000000000
      1114       101  OAC       LPO12           1.4119007814        3.8638591483       -3.3673372676  OAC       1               0.0000000000
      1115       101  OAC       LPO21           2.9561882130        2.2301412287       -4.4794788102  OAC       1               0.0000000000
      1116       101  OAC       LPO22           3.0648941811        2.6282485911       -3.9672538312  OAC       1               0.0000000000
      1117       102  OAC       C1              9.0366837149        1.9330318477        8.1637717071  OAC       2               0.0000000000
      1118       102  OAC       DC1             8.9798042905        1.9714603203        8.1364697536  OAC       2               0.0000000000
      1119       102  OAC       C2              9.4804433281        2.3541580304        9.5952964485  OAC       2               0.0000000000
      1120       102  OAC       DC2             9.4717136751        2.3491456609        9.5870230280  OAC       2               0.0000000000
      1121       102  OAC       H1             10.3569784324        3.0292659405        9.4941207475  OAC       2               0.0000000000
      1122       102  OAC       H2              9.8253093285        1.5026150377       10.2200067611  OAC       2               0.0000000000
      1123       102  OAC       H3              8.6681152713        2.8627881689       10.1572034793  OAC       2               0.0000000000
      1124       102  OAC       O1              9.7184453591        0.9367100126        7.8901685121  OAC       2               0.0000000000
      1125       102  OAC       DO1             9.7142639244        0.9811691741        7.9076684706  OAC       2               0.0000000000
      1126       102  OAC       O2              8.1444072847        2.4997464458        7.4301138371  OAC       2               0.0000000000
      1127       102  OAC       DO2             8.1155753620        2.5207177799        7.3950279130  OAC       2               0.0000000000
      1128       102  OAC       H               7.9330178371        2.0286949834        6.6101223606  OAC       2               0.0000000000
      1129       102  OAC       LPO11           9.9311493510        0.8601535201        8.1573690272  OAC       2               0.0000000000
      1130       102  OAC       LPO12           9.6375999138        0.8205693211        7.5700507935  OAC       2               0.0000000000
      1131       102  OAC       LPO21           8.0065694696        2.7734327292        7.5992189966  OAC       2               0.0000000000
      1132       102  OAC       LPO22           8.1162197075        2.3315084406        7.1244973550  OAC       2               0.0000000000
      1133       103  OAC       C1             -8.1613228824        8.1360292340       -2.8984983802  OAC       3               0.0000000000
      1134       103  OAC       DC1            -8.0527946805        8.1417420106       -2.8994018100  OAC       3               0.0000000000
      1135       103  OAC       C2             -8.8717587993        9.4909203632       -2.9528944776  OAC       3               0.0000000000
      1136       103  OAC       DC2            -8.8155481761        9.4526945711       -2.9232133494  OAC       3               0.0000000000
      1137       103  OAC       H1             -8.2755900745       10.2663527239       -2.4260088105  OAC       3               0.0000000000
      1138       103  OAC       H2             -9.8759775842        9.4070753109       -2.4850957584  OAC       3               0.0000000000
      1139       103  OAC       H3             -9.0126339621        9.8413888026       -3.9977136305  OAC       3               0.0000000000
      1140       103  OAC       O1             -8.8696740406        7.1639054274       -2.5332880059  OAC       3               0.0000000000
      1141       103  OAC       DO1            -8.8238776087        7.1903025136       -2.5320619302  OAC       3               0.0000000000
      1142       103  OAC       O2             -6.8906497226        8.1723408090       -2.9672365983  OAC       3               0.0000000000
      1143       103  OAC       DO2            -6.8025947061        8.1975603022       -2.9162048770  OAC       3               0.0000000000
      1144       103  OAC       H              -6.4889712863        7.3361126330       -3.2471256344  OAC       3               0.0000000000
      1145       103  OAC       LPO11          -9.1955829380        7.2720426613       -2.4655404654  OAC       3               0.0000000000
      1146       103  OAC       LPO12          -8.6786760802        6.8706197228       -2.5314784161  OAC       3               0.0000000000
      1147       103  OAC       LPO21          -6.7817076175        8.5037688233       -2.9952917064  OAC       3               0.0000000000
      1148       103  OAC       LPO22          -6.7606245360        7.8477416781       -2.9521086428  OAC       3               0.0000000000
      1149       104  OAC       C1             -2.5579837301        0.4282676868        5.3273760276  OAC       4               0.0000000000
      1150       104  OAC       DC1            -2.5311732853        0.3596925785        5.2349110153  OAC       4               0.0000000000
      1151       104  OAC       C2             -2.5141018805        1.8157804374        5.7740573827  OAC       4               0.0000000000
      1152       104  OAC       DC2            -2.5894399761        1.6862982873        5.6812107840  OAC       4               0.0000000000
      1153       104  OAC       H1             -3.4537476461        2.3618141210        5.5433323264  OAC       4               0.0000000000
      1154       104  OAC       H2             -1.6969921131        2.2638584838        5.1691783097  OAC       4               0.0000000000
      1155       104  OAC       H3             -2.2932532138        1.9369628502        6.8561210090  OAC       4               0.0000000000
      1156       104  OAC       O1             -1.8419840342        0.0315837604        4.3780320192  OAC       4               0.0000000000
      1157       104  OAC       DO1            -1.8447170340       -0.0063000517        4.2744373341  OAC       4               0.0000000000
      1158       104  OAC       O2             -3.6944147417       -0.0793817788        5.6095934950  OAC       4               0.0000000000
      1159       104  OAC       DO2            -3.7019820637       -0.0764902131        5.5993975611  OAC       4               0.0000000000
      1160       104  OAC       H              -3.8094527275       -0.9940901270        5.3112046556  OAC       4               0.0000000000
      1161       104  OAC       LPO11          -1.6489206661        0.2963119088        4.2549647881  OAC       4               0.0000000000
      1162       104  OAC       LPO12          -1.8982942127       -0.3089094930        4.3197781940  OAC       4               0.0000000000
      1163       104  OAC       LPO21          -3.8955004565        0.1585308224        5.7691620680  OAC       4               0.0000000000
      1164       104  OAC       LPO22          -3.7065131733       -0.4125248136        5.5029663582  OAC       4               0.0000000000
      1165       105  OAC       C1             10.1676955551       -1.5410326570        5.9017283340  OAC       5               0.0000000000
      1166       105  OAC       DC1            10.1776033556       -1.4994132459        5.8705218443  OAC       5               0.0000000000
      1167       105  OAC       C2              9.5128760846       -1.8665689974        7.2318307502  OAC       5               0.0000000000
      1168       105  OAC       DC2             9.5354129291       -1.8823456390        7.1965841790  OAC       5               0.0000000000
      1169       105  OAC       H1             10.1810644126       -1.4607788672        8.0212480862  OAC       5               0.0000000000
      1170       105  OAC       H2              9.4683069648       -2.9610243732        7.4175779595  OAC       5               0.0000000000
      1171       105  OAC       H3              8.4956830311       -1.4322062325        7.3365603151  OAC       5               0.0000000000
      1172       105  OAC       O1             11.0794302787       -2.3734230038        5.5951984270  OAC       5               0.0000000000
      1173       105  OAC       DO1            11.0925329224       -2.3678807293        5.6123698246  OAC       5               0.0000000000
      1174       105  OAC       O2              9.8807778127       -0.4452464873        5.3039320355  OAC       5               0.0000000000
      1175       105  OAC       DO2             9.8852991600       -0.3991424783        5.2768900746  OAC       5               0.0000000000
      1176       105  OAC       H              10.1728232731       -0.3561275716        4.3842971793  OAC       5               0.0000000000
      1177       105  OAC       LPO11          11.1086876253       -2.6164384651        5.8453733523  OAC       5               0.0000000000
      1178       105  OAC       LPO12          11.2217725363       -2.2870735665        5.2873308315  OAC       5               0.0000000000
      1179       105  OAC       LPO21           9.6485065281       -0.2633898244        5.4922886243  OAC       5               0.0000000000
      1180       105  OAC       LPO22          10.0594165604       -0.4222716483        5.0038314613  OAC       5               0.0000000000
      1181       106  OAC       C1             -6.4682913115       -6.5689945433        4.4411249936  OAC       6               0.0000000000
      1182       106  OAC       DC1            -6.3943758300       -6.5214183856        4.4573985508  OAC       6               0.0000000000
      1183       106  OAC       C2             -7.3546043599       -6.8024496429        5.6242308419  OAC       6               0.0000000000
      1184       106  OAC       DC2            -7.2793663996       -6.7862262557        5.6049840164  OAC       6               0.0000000000
      1185       106  OAC       H1             -8.3214601119       -6.2818065434        5.4555841127  OAC       6               0.0000000000
      1186       106  OAC       H2             -7.0146674286       -6.4033795721        6.6037751043  OAC       6               0.0000000000
      1187       106  OAC       H3             -7.5405984339       -7.8880373461        5.7699241672  OAC       6               0.0000000000
      1188       106  OAC       O1             -5.4548581213       -5.8809152461        4.6579026046  OAC       6               0.0000000000
      1189       106  OAC       DO1            -5.4393501090       -5.8001816813        4.5901955649  OAC       6               0.0000000000
      1190       106  OAC       O2             -6.7033112317       -6.8674768124        3.2417940141  OAC       6               0.0000000000
      1191       106  OAC       DO2            -6.6650177916       -6.8106235439        3.2543654129  OAC       6               0.0000000000
      1192       106  OAC       H              -5.9275218478       -6.7785896520        2.6680249799  OAC       6               0.0000000000
      1193       106  OAC       LPO11          -5.4452162137       -5.7846692203        4.9942710575  OAC       6               0.0000000000
      1194       106  OAC       LPO12          -5.2694569364       -5.8447350644        4.3632546874  OAC       6               0.0000000000
      1195       106  OAC       LPO21          -7.0173341158       -7.0198164662        3.2156739419  OAC       6               0.0000000000
      1196       106  OAC       LPO22          -6.4340135425       -6.7719394825        3.0396767879  OAC       6               0.0000000000
      1197       107  OAC       C1              7.9507668658       -3.3960907076        0.2979833151  OAC       7               0.0000000000
      1198       107  OAC       DC1             7.8970479268       -3.3816455137        0.3083088306  OAC       7               0.0000000000
      1199       107  OAC       C2              9.4082777283       -3.6313913598       -0.0019918551  OAC       7               0.0000000000
      1200       107  OAC       DC2             9.3513143553       -3.6119112680        0.0217943681  OAC       7               0.0000000000
      1201       107  OAC       H1              9.4880705502       -4.2826884816       -0.8985219249  OAC       7               0.0000000000
      1202       107  OAC       H2              9.9779603463       -4.1845070386        0.7750832774  OAC       7               0.0000000000
      1203       107  OAC       H3              9.9366775351       -2.6625271578       -0.1301199248  OAC       7               0.0000000000
      1204       107  OAC       O1              7.5711671609       -3.8258101367        1.3977215166  OAC       7               0.0000000000
      1205       107  OAC       DO1             7.4911544272       -3.7504179127        1.4269037857  OAC       7               0.0000000000
      1206       107  OAC       O2              7.0624995028       -2.8098766454       -0.4103494766  OAC       7               0.0000000000
      1207       107  OAC       DO2             6.9987607366       -2.8045519364       -0.3984847491  OAC       7               0.0000000000
      1208       107  OAC       H               6.1894858488       -2.8122621410        0.0101293810  OAC       7               0.0000000000
      1209       107  OAC       LPO11           7.8384875836       -3.9763650994        1.5661643698  OAC       7               0.0000000000
      1210       107  OAC       LPO12           7.2305689798       -3.7582080216        1.4415716371  OAC       7               0.0000000000
      1211       107  OAC       LPO21           7.2034603300       -2.6979031857       -0.7105027533  OAC       7               0.0000000000
      1212       107  OAC       LPO22           6.7551920112       -2.8120692464       -0.2428463479  OAC       7               0.0000000000
      1213       108  OAC       C1              4.9868363072       -5.1808342236        3.5962779440  OAC       8               0.0000000000
      1214       108  OAC       DC1             4.9264000179       -5.1421921357        3.6106114834  OAC       8               0.0000000000
      1215       108  OAC       C2              3.8237450529       -4.2097032512        3.5349520417  OAC       8               0.0000000000
      1216       108  OAC       DC2             3.7461255582       -4.1535896463        3.5177333397  OAC       8               0.0000000000
      1217       108  OAC       H1              2.8912031805       -4.8130936204        3.5103203503  OAC       8               0.0000000000
      1218       108  OAC       H2              3.8418936031       -3.5639048795        2.6311068706  OAC       8               0.0000000000
      1219       108  OAC       H3              3.7572623624       -3.6552377148        4.4954045508  OAC       8               0.0000000000
      1220       108  OAC       O1              5.5626773834       -5.4851595289        2.5474938799  OAC       8               0.0000000000
      1221       108  OAC       DO1             5.5436041339       -5.5111456740        2.6000627302  OAC       8               0.0000000000
      1222       108  OAC       O2              5.0717760502       -5.7961621663        4.7004576760  OAC       8               0.0000000000
      1223       108  OAC       DO2             5.0427240797       -5.8196529980        4.6767926179  OAC       8               0.0000000000
      1224       108  OAC       H               5.8708591200       -6.3411467723        4.7589301274  OAC       8               0.0000000000
      1225       108  OAC       LPO11           5.4149638495       -5.3189024323        2.2772360591  OAC       8               0.0000000000
      1226       108  OAC       LPO12           5.8220612525       -5.7104330977        2.6143656056  OAC       8               0.0000000000
      1227       108  OAC       LPO21           4.8144278218       -5.6939874526        4.9145422790  OAC       8               0.0000000000
      1228       108  OAC       LPO22           5.3451757762       -6.0146185477        4.6950355629  OAC       8               0.0000000000
      1229       109  OAC       C1             -0.5178537700        8.1200933987       -5.8436305763  OAC       9               0.0000000000
      1230       109  OAC       DC1            -0.4686443230        8.0930072388       -5.8192712540  OAC       9               0.0000000000
      1231       109  OAC       C2             -1.2015085207        9.3181401003       -5.1499356842  OAC       9               0.0000000000
      1232       109  OAC       DC2            -1.1977761221        9.2861275011       -5.1193753601  OAC       9               0.0000000000
      1233       109  OAC       H1             -0.6370010321        9.5947346249       -4.2338855948  OAC       9               0.0000000000
      1234       109  OAC       H2             -2.2622197836        9.0771923129       -4.9237570349  OAC       9               0.0000000000
      1235       109  OAC       H3             -1.1825695234       10.2203703630       -5.7979656737  OAC       9               0.0000000000
      1236       109  OAC       O1             -1.1807185659        7.0424024060       -5.9230250075  OAC       9               0.0000000000
      1237       109  OAC       DO1            -1.2217166248        7.0488177572       -5.8626343323  OAC       9               0.0000000000
      1238       109  OAC       O2              0.7433156899        8.2957751110       -5.9584317732  OAC       9               0.0000000000
      1239       109  OAC       DO2             0.7760665508        8.3075065926       -5.9068770680  OAC       9               0.0000000000
      1240       109  OAC       H               1.1918950844        7.6089778826       -6.4742293051  OAC       9               0.0000000000
      1241       109  OAC       LPO11          -1.4951376832        7.0840768204       -5.7750254743  OAC       9               0.0000000000
      1242       109  OAC       LPO12          -0.9914842862        6.7972014613       -6.0860185168  OAC       9               0.0000000000
      1243       109  OAC       LPO21           0.8340235281        8.6050055620       -5.8218718367  OAC       9               0.0000000000
      1244       109  OAC       LPO22           0.8887744717        8.0194428212       -6.1164893842  OAC       9               0.0000000000
      1245       110  OAC       C1              5.6660788156        5.0861463453       -6.2089897596  OAC       10              0.0000000000
      1246       110  OAC       DC1             5.6717251078        5.1004239980       -6.2156955993  OAC       10              0.0000000000
      1247       110  OAC       C2              6.1244318645        6.5038582492       -6.3223058796  OAC       10              0.0000000000
      1248       110  OAC       DC2             6.0880966920        6.5220143261       -6.3523749314  OAC       10              0.0000000000
      1249       110  OAC       H1              6.7675215904        6.5807109005       -7.2249964557  OAC       10              0.0000000000
      1250       110  OAC       H2              6.7096053740        6.8489438563       -5.4432103850  OAC       10              0.0000000000
      1251       110  OAC       H3              5.2351835567        7.1650477450       -6.4022239576  OAC       10              0.0000000000
      1252       110  OAC       O1              5.9234599901        4.3612968271       -5.2665121976  OAC       10              0.0000000000
      1253       110  OAC       DO1             5.9020048750        4.3541581632       -5.2977791218  OAC       10              0.0000000000
      1254       110  OAC       O2              4.9037881259        4.6998632179       -7.1093107001  OAC       10              0.0000000000
      1255       110  OAC       DO2             4.8932687776        4.7018900752       -7.0812861131  OAC       10              0.0000000000
      1256       110  OAC       H               4.5822292504        3.7973263908       -6.9644377660  OAC       10              0.0000000000
      1257       110  OAC       LPO11           6.1174051059        4.5341812089       -5.0319993352  OAC       10              0.0000000000
      1258       110  OAC       LPO12           5.7801682033        4.0457600498       -5.3155428619  OAC       10              0.0000000000
      1259       110  OAC       LPO21           4.8461235511        4.9594337326       -7.3369023185  OAC       10              0.0000000000
      1260       110  OAC       LPO22           4.8144294588        4.3657901566       -7.0553642611  OAC       10              0.0000000000
      1261       111  OAC       C1              9.2090587912       -8.7339241857        8.3659957651  OAC       11              0.0000000000
      1262       111  OAC       DC1             9.1178336459       -8.8121286894        8.3623784569  OAC       11              0.0000000000
      1263       111  OAC       C2              9.1276758348       -8.3741364968        9.8758841593  OAC       11              0.0000000000
      1264       111  OAC       DC2             9.0988531303       -8.3992059278        9.8940084976  OAC       11              0.0000000000
      1265       111  OAC       H1              8.1881105191       -7.8608513038       10.1726607248  OAC       11              0.0000000000
      1266       111  OAC       H2              9.9595740133       -7.6952145385       10.1610707593  OAC       11              0.0000000000
      1267       111  OAC       H3              9.2277238131       -9.3352338702       10.4241571229  OAC       11              0.0000000000
      1268       111  OAC       O1             10.2316232921       -8.3101289680        7.8230644229  OAC       11              0.0000000000
      1269       111  OAC       DO1            10.1984942925       -8.3178343696        7.9118265912  OAC       11              0.0000000000
      1270       111  OAC       O2              8.2411042511       -9.5207967003        8.0815890916  OAC       11              0.0000000000
      1271       111  OAC       DO2             8.0987538869       -9.5260657326        8.2134235693  OAC       11              0.0000000000
      1272       111  OAC       H               8.0910491022       -9.6302042630        7.1305504816  OAC       11              0.0000000000
      1273       111  OAC       LPO11          10.4283050257       -8.1381169962        8.0559338653  OAC       11              0.0000000000
      1274       111  OAC       LPO12          10.2335128687       -8.3998443497        7.4847634034  OAC       11              0.0000000000
      1275       111  OAC       LPO21           8.0487153520       -9.5821050201        8.3674698384  OAC       11              0.0000000000
      1276       111  OAC       LPO22           8.2523668678       -9.6067301025        7.7424893955  OAC       11              0.0000000000
      1277       112  OAC       C1              1.4290849125        8.0281268015        2.0301682790  OAC       12              0.0000000000
      1278       112  OAC       DC1             1.4160520059        7.9583105959        2.0081886459  OAC       12              0.0000000000
      1279       112  OAC       C2              1.6654600366        9.5346043188        2.0798570633  OAC       12              0.0000000000
      1280       112  OAC       DC2             1.6150489077        9.4763991416        1.9785563796  OAC       12              0.0000000000
      1281       112  OAC       H1              2.5305015519        9.7832896957        1.4285662210  OAC       12              0.0000000000
      1282       112  OAC       H2              1.9098877975        9.8926438389        3.1027860800  OAC       12              0.0000000000
      1283       112  OAC       H3              0.7760910736       10.0979258187        1.7248743374  OAC       12              0.0000000000
      1284       112  OAC       O1              1.8082982634        7.1065983884        2.8008732058  OAC       12              0.0000000000
      1285       112  OAC       DO1             1.7902397869        7.0091874714        2.7565310015  OAC       12              0.0000000000
      1286       112  OAC       O2              0.7834755348        7.7023602605        0.9742452422  OAC       12              0.0000000000
      1287       112  OAC       DO2             0.7581932498        7.6861474539        0.9344929373  OAC       12              0.0000000000
      1288       112  OAC       H               0.6480439444        6.7446741174        0.9154529212  OAC       12              0.0000000000
      1289       112  OAC       LPO11           1.9978063949        7.2402042813        3.0630489742  OAC       12              0.0000000000
      1290       112  OAC       LPO12           1.6908584532        6.7978588786        2.6851675187  OAC       12              0.0000000000
      1291       112  OAC       LPO21           0.7143445193        7.9875224723        0.7834484506  OAC       12              0.0000000000
      1292       112  OAC       LPO22           0.7318322025        7.3562568003        0.9675101817  OAC       12              0.0000000000
      1293       113  OAC       C1              5.5886025083        8.3739907519       -0.3782772224  OAC       13              0.0000000000
      1294       113  OAC       DC1             5.5847652331        8.3908314024       -0.4009976880  OAC       13              0.0000000000
      1295       113  OAC       C2              6.4185410456        7.0458535900       -0.3949137944  OAC       13              0.0000000000
      1296       113  OAC       DC2             6.3976225505        7.0273251271       -0.4217194691  OAC       13              0.0000000000
      1297       113  OAC       H1              6.2734368214        6.4814737040       -1.3408213533  OAC       13              0.0000000000
      1298       113  OAC       H2              6.1394182298        6.3706542329        0.4420553108  OAC       13              0.0000000000
      1299       113  OAC       H3              7.4996561909        7.2637609282       -0.2606475127  OAC       13              0.0000000000
      1300       113  OAC       O1              4.7167246083        8.3095284643        0.5088754557  OAC       13              0.0000000000
      1301       113  OAC       DO1             4.7078295575        8.2928398604        0.4849336332  OAC       13              0.0000000000
      1302       113  OAC       O2              5.6530110641        9.2287519174       -1.3344757246  OAC       13              0.0000000000
      1303       113  OAC       DO2             5.6659938019        9.2047716169       -1.3946672155  OAC       13              0.0000000000
      1304       113  OAC       H               5.0238155609        9.9618522589       -1.2593897160  OAC       13              0.0000000000
      1305       113  OAC       LPO11           4.7361230627        8.0013307101        0.6736111357  OAC       13              0.0000000000
      1306       113  OAC       LPO12           4.5297361106        8.6053354496        0.5146658959  OAC       13              0.0000000000
      1307       113  OAC       LPO21           5.8748363498        9.1163575330       -1.5807703550  OAC       13              0.0000000000
      1308       113  OAC       LPO22           5.4431938241        9.5005041859       -1.2664505058  OAC       13              0.0000000000
      1309       114  OAC       C1              2.9858017389        4.9976106295        8.3426874105  OAC       14              0.0000000000
      1310       114  OAC       DC1             2.9852980598        4.9534864231        8.3494000148  OAC       14              0.0000000000
      1311       114  OAC       C2              3.6637250182        3.7728175230        8.9048898798  OAC       14              0.0000000000
      1312       114  OAC       DC2             3.6506263674        3.6737276648        8.9097950997  OAC       14              0.0000000000
      1313       114  OAC       H1              3.6881905879        3.0161240941        8.0917862636  OAC       14              0.0000000000
      1314       114  OAC       H2              3.1772008016        3.3605817730        9.8146573633  OAC       14              0.0000000000
      1315       114  OAC       H3              4.6951655426        4.0667501669        9.1948123627  OAC       14              0.0000000000
      1316       114  OAC       O1              1.8666944875        5.2752643025        8.8624558389  OAC       14              0.0000000000
      1317       114  OAC       DO1             1.8595072259        5.2438716517        8.8676705511  OAC       14              0.0000000000
      1318       114  OAC       O2              3.5075257785        5.2289699005        7.2006698077  OAC       14              0.0000000000
      1319       114  OAC       DO2             3.4883150205        5.1957236866        7.1930092771  OAC       14              0.0000000000
      1320       114  OAC       H               3.2379692829        6.0675596780        6.7968536604  OAC       14              0.0000000000
      1321       114  OAC       LPO11           1.7881230407        5.0405767029        9.1099396936  OAC       14              0.0000000000
      1322       114  OAC       LPO12           1.7334255761        5.5625100939        8.7133610616  OAC       14              0.0000000000
      1323       114  OAC       LPO21           3.7530009515        4.9895610003        7.1304891979  OAC       14              0.0000000000
      1324       114  OAC       LPO22           3.3598883558        5.5117650907        7.0566903934  OAC       14              0.0000000000
      1325       115  OAC       C1              0.4521379561        4.4178919767       -9.3456575710  OAC       15              0.0000000000
      1326       115  OAC       DC1             0.4584346603        4.4645170811       -9.3375089390  OAC       15              0.0000000000
      1327       115  OAC       C2             -1.0836303831        4.5812447948       -9.2921761772  OAC       15              0.0000000000
      1328       115  OAC       DC2            -1.0972812491        4.5720635528       -9.2697284578  OAC       15              0.0000000000
      1329       115  OAC       H1             -1.3245306811        4.9983131126       -8.2910058294  OAC       15              0.0000000000
      1330       115  OAC       H2             -1.6071027444        3.6072238005       -9.3997902617  OAC       15              0.0000000000
      1331       115  OAC       H3             -1.4554718951        5.2549085145      -10.0935700154  OAC       15              0.0000000000
      1332       115  OAC       O1              0.8866073690        3.2493725116       -9.2040939792  OAC       15              0.0000000000
      1333       115  OAC       DO1             0.8656477994        3.2752625444       -9.1824903242  OAC       15              0.0000000000
      1334       115  OAC       O2              1.1492245223        5.4952610788       -9.3680724298  OAC       15              0.0000000000
      1335       115  OAC       DO2             1.1877338059        5.5113427052       -9.3368489318  OAC       15              0.0000000000
      1336       115  OAC       H               2.1009734416        5.3318013944       -9.2879729493  OAC       15              0.0000000000
      1337       115  OAC       LPO11           0.6199380694        3.0270524641       -9.1598076252  OAC       15              0.0000000000
      1338       115  OAC       LPO12           1.2361802382        3.2487207410       -9.2213677823  OAC       15              0.0000000000
      1339       115  OAC       LPO21           0.9383283920        5.7744789486       -9.3603133468  OAC       15              0.0000000000
      1340       115  OAC       LPO22           1.4901582791        5.4170204298       -9.3800128802  OAC       15              0.0000000000
      1341       116  OAC       C1             -0.6869440008        8.7807130168        9.9242543854  OAC       16              0.0000000000
      1342       116  OAC       DC1            -0.7801133967        8.7793256275        9.9148886964  OAC       16              0.0000000000
      1343       116  OAC       C2              0.5345339196        8.0297754182        9.4946149899  OAC       16              0.0000000000
      1344       116  OAC       DC2             0.4067407625        8.0485689137        9.5146872247  OAC       16              0.0000000000
      1345       116  OAC       H1              0.7014688221        7.1499721266       10.1521862083  OAC       16              0.0000000000
      1346       116  OAC       H2              1.4005546083        8.7155114590        9.6133384060  OAC       16              0.0000000000
      1347       116  OAC       H3              0.4250034027        7.6830065747        8.4448171826  OAC       16              0.0000000000
      1348       116  OAC       O1             -0.6925022727       10.0428364556       10.0827647313  OAC       16              0.0000000000
      1349       116  OAC       DO1            -0.6911054477       10.0432087118       10.0799766123  OAC       16              0.0000000000
      1350       116  OAC       O2             -1.7019265553        8.0025773820        9.9725073469  OAC       16              0.0000000000
      1351       116  OAC       DO2            -1.7160558418        7.9218340431        9.9561734211  OAC       16              0.0000000000
      1352       116  OAC       H              -2.5385210617        8.4808031380       10.0743442726  OAC       16              0.0000000000
      1353       116  OAC       LPO11          -0.3757605852       10.1737846781       10.0118615123  OAC       16              0.0000000000
      1354       116  OAC       LPO12          -1.0102900891       10.1494339847       10.1835013708  OAC       16              0.0000000000
      1355       116  OAC       LPO21          -1.6084030437        7.6780109108        9.8808015209  OAC       16              0.0000000000
      1356       116  OAC       LPO22          -1.9853171288        8.1815824087       10.0732395823  OAC       16              0.0000000000
      1357       117  OAC       C1             -0.1622537569       -4.1943884995       -6.6893902184  OAC       17              0.0000000000
      1358       117  OAC       DC1            -0.2375838850       -4.2685067730       -6.7066119049  OAC       17              0.0000000000
      1359       117  OAC       C2              0.9765441894       -4.6175278797       -5.8368934268  OAC       17              0.0000000000
      1360       117  OAC       DC2             0.8840845917       -4.6752761266       -5.9219595736  OAC       17              0.0000000000
      1361       117  OAC       H1              1.9659251014       -4.5638143755       -6.3394481712  OAC       17              0.0000000000
      1362       117  OAC       H2              0.8429424967       -5.6453408832       -5.4368034128  OAC       17              0.0000000000
      1363       117  OAC       H3              0.9842804478       -3.9814902472       -4.9260052447  OAC       17              0.0000000000
      1364       117  OAC       O1             -0.8882505579       -5.1754809280       -6.9759306869  OAC       17              0.0000000000
      1365       117  OAC       DO1            -0.9424799224       -5.2364947702       -6.9736871052  OAC       17              0.0000000000
      1366       117  OAC       O2             -0.4718539943       -2.9805610480       -6.8120570832  OAC       17              0.0000000000
      1367       117  OAC       DO2            -0.5119133412       -3.0150230887       -6.7772159914  OAC       17              0.0000000000
      1368       117  OAC       H              -1.0839905472       -2.7656367270       -7.5318191113  OAC       17              0.0000000000
      1369       117  OAC       LPO11          -0.7596417384       -5.4663163932       -6.8297304689  OAC       17              0.0000000000
      1370       117  OAC       LPO12          -1.1555020621       -5.0720034348       -7.1768511734  OAC       17              0.0000000000
      1371       117  OAC       LPO21          -0.2551245118       -2.7819546407       -6.6220996500  OAC       17              0.0000000000
      1372       117  OAC       LPO22          -0.7474726574       -2.9482848667       -7.0253470282  OAC       17              0.0000000000
      1373       118  OAC       C1             -1.9293008950        7.0803517044        2.8956335031  OAC       18              0.0000000000
      1374       118  OAC       DC1            -2.0150510868        7.0238192935        2.7575783173  OAC       18              0.0000000000
      1375       118  OAC       C2             -1.8174951073        8.5983873077        2.5066704081  OAC       18              0.0000000000
      1376       118  OAC       DC2            -1.9469589306        8.5505294117        2.3986025663  OAC       18              0.0000000000
      1377       118  OAC       H1             -2.5297813094        9.2849621458        3.0122239261  OAC       18              0.0000000000
      1378       118  OAC       H2             -1.7550450840        8.7395326088        1.4064436131  OAC       18              0.0000000000
      1379       118  OAC       H3             -0.8085117237        9.0496555947        2.6190557521  OAC       18              0.0000000000
      1380       118  OAC       O1             -2.6580415757        6.4674613683        2.0643356399  OAC       18              0.0000000000
      1381       118  OAC       DO1            -2.7321506590        6.4056348839        1.9805386312  OAC       18              0.0000000000
      1382       118  OAC       O2             -1.4219090248        6.5636125621        3.8935085680  OAC       18              0.0000000000
      1383       118  OAC       DO2            -1.4494177153        6.5849052780        3.8121512197  OAC       18              0.0000000000
      1384       118  OAC       H              -1.7483950610        5.6799165414        4.1203327572  OAC       18              0.0000000000
      1385       118  OAC       LPO11          -2.7721914735        6.6892797550        1.8188434726  OAC       18              0.0000000000
      1386       118  OAC       LPO12          -2.6819198782        6.1295575863        2.1523746129  OAC       18              0.0000000000
      1387       118  OAC       LPO21          -1.2486341802        6.8050820443        4.0783553084  OAC       18              0.0000000000
      1388       118  OAC       LPO22          -1.4966603454        6.2218045364        3.9024256099  OAC       18              0.0000000000
      1389       119  OAC       C1              6.2377940893       -1.8771386469        5.2253622061  OAC       19              0.0000000000
      1390       119  OAC       DC1             5.8038337057       -1.8882976517        5.1225848511  OAC       19              0.0000000000
      1391       119  OAC       C2              6.5216151559       -2.9385347469        6.1689686085  OAC       19              0.0000000000
      1392       119  OAC       DC2             6.4671340367       -2.7777995286        6.0519364409  OAC       19              0.0000000000
      1393       119  OAC       H1              6.0020158627       -2.9801705945        7.1500924706  OAC       19              0.0000000000
      1394       119  OAC       H2              7.6055331030       -3.0518136104        6.3848639151  OAC       19              0.0000000000
      1395       119  OAC       H3              6.2134577680       -3.8943263737        5.6937608744  OAC       19              0.0000000000
      1396       119  OAC       O1              7.0911004099       -1.0726721364        4.7804364387  OAC       19              0.0000000000
      1397       119  OAC       DO1             6.9931406048       -1.1439608094        4.8075072927  OAC       19              0.0000000000
      1398       119  OAC       O2              5.1497864075       -1.8677955917        4.9301114029  OAC       19              0.0000000000
      1399       119  OAC       DO2             4.8953126953       -1.7371980677        4.6577738608  OAC       19              0.0000000000
      1400       119  OAC       H               4.9222618099       -1.1168273336        4.3615692031  OAC       19              0.0000000000
      1401       119  OAC       LPO11           7.4051883057       -1.1432031089        4.9178197551  OAC       19              0.0000000000
      1402       119  OAC       LPO12           6.9398876733       -0.8485883213        4.5581277521  OAC       19              0.0000000000
      1403       119  OAC       LPO21           4.9787530540       -2.1247190691        5.0951505461  OAC       19              0.0000000000
      1404       119  OAC       LPO22           5.0897701106       -1.6088880202        4.7023727072  OAC       19              0.0000000000
      1405       120  OAC       C1             -9.7603167381       -8.9878593431        5.0465453460  OAC       20              0.0000000000
      1406       120  OAC       DC1            -9.7228663357       -8.9875455160        5.1369385522  OAC       20              0.0000000000
      1407       120  OAC       C2             -9.2659698010       -9.3991904826        6.4366147093  OAC       20              0.0000000000
      1408       120  OAC       DC2            -9.2519437307       -9.3960385358        6.5878279164  OAC       20              0.0000000000
      1409       120  OAC       H1             -9.9581229470      -10.1803308483        6.8174883782  OAC       20              0.0000000000
      1410       120  OAC       H2             -9.2187618046       -8.4969968001        7.0832513655  OAC       20              0.0000000000
      1411       120  OAC       H3             -8.2410673153       -9.8147993271        6.3309492739  OAC       20              0.0000000000
      1412       120  OAC       O1            -10.1120811713       -7.7738659493        5.0446754442  OAC       20              0.0000000000
      1413       120  OAC       DO1           -10.0859139468       -7.7879023287        5.0517253032  OAC       20              0.0000000000
      1414       120  OAC       O2             -9.7120876265       -9.8565818289        4.1399695889  OAC       20              0.0000000000
      1415       120  OAC       DO2            -9.7137503509       -9.8182837484        4.1832504853  OAC       20              0.0000000000
      1416       120  OAC       H             -10.0013728455       -9.5486629531        3.2679254225  OAC       20              0.0000000000
      1417       120  OAC       LPO11         -10.0662174922       -7.6354552832        5.3628562268  OAC       20              0.0000000000
      1418       120  OAC       LPO12         -10.2245761481       -7.6823217152        4.7261404643  OAC       20              0.0000000000
      1419       120  OAC       LPO21          -9.5816838332      -10.1553780796        4.2673102787  OAC       20              0.0000000000
      1420       120  OAC       LPO22          -9.8333020904       -9.7233075380        3.8398945697  OAC       20              0.0000000000
      1421       121  OAC       C1             -3.9445158187       -5.5222589033        7.0227475826  OAC       21              0.0000000000
      1422       121  OAC       DC1            -3.9640554933       -5.5327920111        7.0378276778  OAC       21              0.0000000000
      1423       121  OAC       C2             -2.9566518120       -5.8900934974        5.9349527722  OAC       21              0.0000000000
      1424       121  OAC       DC2            -2.9649010933       -5.8830069277        5.9380557612  OAC       21              0.0000000000
      1425       121  OAC       H1             -3.0873513722       -5.1941883197        5.0788250897  OAC       21              0.0000000000
      1426       121  OAC       H2             -3.1546198268       -6.9031302876        5.5239951963  OAC       21              0.0000000000
      1427       121  OAC       H3             -1.9186235518       -5.8203119670        6.3247589674  OAC       21              0.0000000000
      1428       121  OAC       O1             -4.7725155674       -6.4183424229        7.3214321016  OAC       21              0.0000000000
      1429       121  OAC       DO1            -4.7783002182       -6.4462332595        7.3285975970  OAC       21              0.0000000000
      1430       121  OAC       O2             -3.9165251543       -4.3628748665        7.5275144828  OAC       21              0.0000000000
      1431       121  OAC       DO2            -3.9402186927       -4.3637279638        7.5148583792  OAC       21              0.0000000000
      1432       121  OAC       H              -4.5403784524       -4.2066345015        8.2523296391  OAC       21              0.0000000000
      1433       121  OAC       LPO11          -4.7166711161       -6.7030135370        7.1256164893  OAC       21              0.0000000000
      1434       121  OAC       LPO12          -4.9861789962       -6.3044672358        7.5741777861  OAC       21              0.0000000000
      1435       121  OAC       LPO21          -3.6629157583       -4.1734108713        7.3782306297  OAC       21              0.0000000000
      1436       121  OAC       LPO22          -4.1648362371       -4.3328807007        7.7723449469  OAC       21              0.0000000000
      1437       122  OAC       C1             -0.4631899837       -1.0718824179        8.8248298783  OAC       22              0.0000000000
      1438       122  OAC       DC1            -0.5016231700       -1.1116102213        8.7731017276  OAC       22              0.0000000000
      1439       122  OAC       C2             -1.0668132416        0.0644780619        7.9836352723  OAC       22              0.0000000000
      1440       122  OAC       DC2            -1.1173279678        0.0311337111        7.9942578360  OAC       22              0.0000000000
      1441       122  OAC       H1             -1.3853626642        0.9308314132        8.6019225328  OAC       22              0.0000000000
      1442       122  OAC       H2             -1.9684632886       -0.3049557410        7.4499060715  OAC       22              0.0000000000
      1443       122  OAC       H3             -0.3210341116        0.4115855793        7.2368750292  OAC       22              0.0000000000
      1444       122  OAC       O1             -0.8544810283       -2.1939841706        8.3894546796  OAC       22              0.0000000000
      1445       122  OAC       DO1            -0.8743066192       -2.1923674888        8.3220544341  OAC       22              0.0000000000
      1446       122  OAC       O2              0.1387349373       -0.7707002369        9.8700547374  OAC       22              0.0000000000
      1447       122  OAC       DO2             0.0898686965       -0.7551386913        9.8256080277  OAC       22              0.0000000000
      1448       122  OAC       H               0.6968733779       -1.4856921299       10.2109785913  OAC       22              0.0000000000
      1449       122  OAC       LPO11          -1.0665861226       -2.1484681359        8.1147917597  OAC       22              0.0000000000
      1450       122  OAC       LPO12          -0.7163959551       -2.4517667432        8.5817582360  OAC       22              0.0000000000
      1451       122  OAC       LPO21           0.1353365073       -0.4235317066        9.9143544237  OAC       22              0.0000000000
      1452       122  OAC       LPO22           0.2580524215       -1.0598669262       10.0270450676  OAC       22              0.0000000000
      1453       123  OAC       C1             -8.0588881391        5.9233950455        9.5093527916  OAC       23              0.0000000000
      1454       123  OAC       DC1            -8.0607985283        5.9377449417        9.4883983374  OAC       23              0.0000000000
      1455       123  OAC       C2             -9.4331182677        5.2630124168        9.3883225401  OAC       23              0.0000000000
      1456       123  OAC       DC2            -9.4283448069        5.2712639672        9.3854117195  OAC       23              0.0000000000
      1457       123  OAC       H1            -10.2119509394        6.0461470616        9.5084924114  OAC       23              0.0000000000
      1458       123  OAC       H2             -9.5543670974        4.4722215403       10.1592113209  OAC       23              0.0000000000
      1459       123  OAC       H3             -9.5349598030        4.8039712319        8.3817290311  OAC       23              0.0000000000
      1460       123  OAC       O1             -7.3251397941        5.5942559835       10.4795725492  OAC       23              0.0000000000
      1461       123  OAC       DO1            -7.3457016463        5.5841327030       10.4715985565  OAC       23              0.0000000000
      1462       123  OAC       O2             -7.8765014126        6.7446428142        8.5534638814  OAC       23              0.0000000000
      1463       123  OAC       DO2            -7.8984152606        6.7616087767        8.5470224636  OAC       23              0.0000000000
      1464       123  OAC       H              -6.9930868902        7.1370096433        8.4857287007  OAC       23              0.0000000000
      1465       123  OAC       LPO11          -7.4881632519        5.3560733217       10.6775431829  OAC       23              0.0000000000
      1466       123  OAC       LPO12          -7.0227154985        5.7699073138       10.4659286645  OAC       23              0.0000000000
      1467       123  OAC       LPO21          -8.1570664656        6.7490644551        8.3442661278  OAC       23              0.0000000000
      1468       123  OAC       LPO22          -7.5616443457        6.8946306548        8.5829371759  OAC       23              0.0000000000
      1469       124  OAC       C1             -1.1493524949       -2.4296892191       -0.5410243536  OAC       24              0.0000000000
      1470       124  OAC       DC1            -1.1871559525       -2.3729087298       -0.5566828569  OAC       24              0.0000000000
      1471       124  OAC       C2             -0.5775491475       -3.7200481943       -0.2303618716  OAC       24              0.0000000000
      1472       124  OAC       DC2            -0.6762126810       -3.6603005541       -0.2397120895  OAC       24              0.0000000000
      1473       124  OAC       H1             -1.2303544700       -4.1515001541        0.5583176689  OAC       24              0.0000000000
      1474       124  OAC       H2              0.4332286942       -3.5476633720        0.1973443687  OAC       24              0.0000000000
      1475       124  OAC       H3             -0.4840791535       -4.4062134749       -1.0991320198  OAC       24              0.0000000000
      1476       124  OAC       O1             -0.6833396120       -1.3664170963       -0.0573209165  OAC       24              0.0000000000
      1477       124  OAC       DO1            -0.7204248497       -1.3270999861       -0.0178570171  OAC       24              0.0000000000
      1478       124  OAC       O2             -2.2458830198       -2.4958247079       -1.1881791236  OAC       24              0.0000000000
      1479       124  OAC       DO2            -2.2842627726       -2.4727509333       -1.2005237981  OAC       24              0.0000000000
      1480       124  OAC       H              -2.6505095657       -1.6355736438       -1.3758129837  OAC       24              0.0000000000
      1481       124  OAC       LPO11          -0.4107283190       -1.4386095220        0.1499743719  OAC       24              0.0000000000
      1482       124  OAC       LPO12          -0.8672378163       -1.0918136264       -0.1725354330  OAC       24              0.0000000000
      1483       124  OAC       LPO21          -2.3312278917       -2.8304337498       -1.2452145684  OAC       24              0.0000000000
      1484       124  OAC       LPO22          -2.3664439712       -2.1736345472       -1.2526660010  OAC       24              0.0000000000
      1485       125  OAC       C1              1.3327319538       -7.0075936363        6.2717050898  OAC       25              0.0000000000
      1486       125  OAC       DC1             1.2082191995       -7.0653902592        6.3302099123  OAC       25              0.0000000000
      1487       125  OAC       C2              2.3565248258       -6.3839260674        5.4808493021  OAC       25              0.0000000000
      1488       125  OAC       DC2             2.1639345179       -6.4600016469        5.5503578685  OAC       25              0.0000000000
      1489       125  OAC       H1              3.3297002815       -6.7838882187        5.8376136661  OAC       25              0.0000000000
      1490       125  OAC       H2              2.3266977591       -5.2739671992        5.4431311705  OAC       25              0.0000000000
      1491       125  OAC       H3              2.3071500821       -6.6697721943        4.4083871226  OAC       25              0.0000000000
      1492       125  OAC       O1              0.3184477492       -6.5011517149        6.8511008380  OAC       25              0.0000000000
      1493       125  OAC       DO1             0.2173168673       -6.5116941060        6.8206599951  OAC       25              0.0000000000
      1494       125  OAC       O2              1.3052233686       -8.2830641610        6.1684469237  OAC       25              0.0000000000
      1495       125  OAC       DO2             1.2298195459       -8.3261998813        6.1861942945  OAC       25              0.0000000000
      1496       125  OAC       H               0.6813632111       -8.7057456516        6.7776265866  OAC       25              0.0000000000
      1497       125  OAC       LPO11           0.3085441567       -6.1558250597        6.7949633274  OAC       25              0.0000000000
      1498       125  OAC       LPO12           0.1376192079       -6.7512439693        7.0161914279  OAC       25              0.0000000000
      1499       125  OAC       LPO21           1.5557914948       -8.3908394446        5.9491295683  OAC       25              0.0000000000
      1500       125  OAC       LPO22           1.0495097294       -8.4138671305        6.3684497184  OAC       25              0.0000000000
      1501       126  OAC       C1             -8.8595837283        1.6352331138        9.0994115070  OAC       26              0.0000000000
      1502       126  OAC       DC1            -8.8662605977        1.6005368234        9.1264193398  OAC       26              0.0000000000
      1503       126  OAC       C2             -9.4617810685        1.9932539387        7.6995051480  OAC       26              0.0000000000
      1504       126  OAC       DC2            -9.4375014345        1.9416615153        7.6958955493  OAC       26              0.0000000000
      1505       126  OAC       H1            -10.0366858264        2.9433063347        7.7342321784  OAC       26              0.0000000000
      1506       126  OAC       H2            -10.1586375145        1.2114387748        7.3287260444  OAC       26              0.0000000000
      1507       126  OAC       H3             -8.6369193851        2.1110891696        6.9646316469  OAC       26              0.0000000000
      1508       126  OAC       O1             -9.2995270263        0.5706347493        9.6536109832  OAC       26              0.0000000000
      1509       126  OAC       DO1            -9.3039176053        0.5071982024        9.6315531393  OAC       26              0.0000000000
      1510       126  OAC       O2             -7.7518431100        2.2180293207        9.3572552817  OAC       26              0.0000000000
      1511       126  OAC       DO2            -7.7346526731        2.1943165364        9.3259414451  OAC       26              0.0000000000
      1512       126  OAC       H              -7.4678150538        2.2084703997       10.2836448813  OAC       26              0.0000000000
      1513       126  OAC       LPO11          -9.5384360452        0.4185646589        9.4479482295  OAC       26              0.0000000000
      1514       126  OAC       LPO12          -9.1430152827        0.5233154982        9.9630701284  OAC       26              0.0000000000
      1515       126  OAC       LPO21          -7.6587789178        2.4224083935        9.0887999768  OAC       26              0.0000000000
      1516       126  OAC       LPO22          -7.6373849343        2.1228303636        9.6740146297  OAC       26              0.0000000000
      1517       127  OAC       C1              8.9300925095        0.8407399654       -9.7798895827  OAC       27              0.0000000000
      1518       127  OAC       DC1             8.9501159928        0.9232252873       -9.7718751235  OAC       27              0.0000000000
      1519       127  OAC       C2              7.8056061062       -0.1144693341       -9.4784646031  OAC       27              0.0000000000
      1520       127  OAC       DC2             7.8985792006       -0.0923873729       -9.4874983235  OAC       27              0.0000000000
      1521       127  OAC       H1              7.4859587672        0.1371989023       -8.4446320831  OAC       27              0.0000000000
      1522       127  OAC       H2              8.1287764838       -1.1774277196       -9.4796388153  OAC       27              0.0000000000
      1523       127  OAC       H3              6.9480634726        0.0162266994      -10.1726260963  OAC       27              0.0000000000
      1524       127  OAC       O1             10.0851159388        0.3761466656      -10.0639112190  OAC       27              0.0000000000
      1525       127  OAC       DO1            10.0907270843        0.3656056086      -10.0484455810  OAC       27              0.0000000000
      1526       127  OAC       O2              8.6843053135        2.0548512443       -9.4685494174  OAC       27              0.0000000000
      1527       127  OAC       DO2             8.7130635375        2.1157304928       -9.3940760742  OAC       27              0.0000000000
      1528       127  OAC       H               9.3356375457        2.6993896121       -9.7836646606  OAC       27              0.0000000000
      1529       127  OAC       LPO11          10.0786597529        0.0262937325      -10.0560854381  OAC       27              0.0000000000
      1530       127  OAC       LPO12          10.3081267940        0.6388932718      -10.1249880508  OAC       27              0.0000000000
      1531       127  OAC       LPO21           8.3634582472        2.0805829466       -9.3310901888  OAC       27              0.0000000000
      1532       127  OAC       LPO22           8.9590814065        2.2566956291       -9.5476502585  OAC       27              0.0000000000
      1533       128  OAC       C1             -9.9061405823       -3.7142931765        3.8305181894  OAC       28              0.0000000000
      1534       128  OAC       DC1            -9.8723018804       -3.6852945651        3.8565933079  OAC       28              0.0000000000
      1535       128  OAC       C2             -9.3354461660       -2.3473110455        4.0614583342  OAC       28              0.0000000000
      1536       128  OAC       DC2            -9.2346423458       -2.3094290509        4.0449794994  OAC       28              0.0000000000
      1537       128  OAC       H1            -10.1082826683       -1.9193726799        4.7351893623  OAC       28              0.0000000000
      1538       128  OAC       H2             -9.2915126520       -1.7400643352        3.1321347729  OAC       28              0.0000000000
      1539       128  OAC       H3             -8.3465917941       -2.3660797414        4.5675569087  OAC       28              0.0000000000
      1540       128  OAC       O1            -10.1566303667       -3.9083693073        2.6365975546  OAC       28              0.0000000000
      1541       128  OAC       DO1           -10.1032636143       -3.8546996147        2.6463653673  OAC       28              0.0000000000
      1542       128  OAC       O2             -9.5349931452       -4.4475034802        4.7961578536  OAC       28              0.0000000000
      1543       128  OAC       DO2            -9.4898672245       -4.4135350637        4.8067318785  OAC       28              0.0000000000
      1544       128  OAC       H              -9.7963125179       -5.3747350385        4.6916838242  OAC       28              0.0000000000
      1545       128  OAC       LPO11         -10.0726898467       -3.6250157821        2.4490748391  OAC       28              0.0000000000
      1546       128  OAC       LPO12         -10.2891201678       -4.2293381655        2.5927176654  OAC       28              0.0000000000
      1547       128  OAC       LPO21          -9.3386673162       -4.2619979964        5.0187424090  OAC       28              0.0000000000
      1548       128  OAC       LPO22          -9.6612413881       -4.7714488482        4.7558989456  OAC       28              0.0000000000
      1549       129  OAC       C1             -6.1411591691        7.9752684094       -7.6391032743  OAC       29              0.0000000000
      1550       129  OAC       DC1            -6.2273970313        7.8595062047       -7.5308661642  OAC       29              0.0000000000
      1551       129  OAC       C2             -5.4368826754        8.8936816352       -6.6117543844  OAC       29              0.0000000000
      1552       129  OAC       DC2            -5.4918370261        8.8500056186       -6.6195808773  OAC       29              0.0000000000
      1553       129  OAC       H1             -4.3577818846        8.6477096120       -6.5150060096  OAC       29              0.0000000000
      1554       129  OAC       H2             -5.9105976284        8.7934842496       -5.6118165719  OAC       29              0.0000000000
      1555       129  OAC       H3             -5.5334407077        9.9588265143       -6.9125266136  OAC       29              0.0000000000
      1556       129  OAC       O1             -6.8929344802        7.0783337372       -7.2656026878  OAC       29              0.0000000000
      1557       129  OAC       DO1            -6.9913962473        6.9597222012       -7.4250742205  OAC       29              0.0000000000
      1558       129  OAC       O2             -6.1236106199        8.2100281879       -8.8633494791  OAC       29              0.0000000000
      1559       129  OAC       DO2            -6.1836160430        8.2076597373       -8.7941517476  OAC       29              0.0000000000
      1560       129  OAC       H              -6.4125388235        7.4472762434       -9.3865042979  OAC       29              0.0000000000
      1561       129  OAC       LPO11          -6.9115077805        7.0754818213       -6.9161074817  OAC       29              0.0000000000
      1562       129  OAC       LPO12          -7.0208721192        6.9063850985       -7.5423076321  OAC       29              0.0000000000
      1563       129  OAC       LPO21          -5.9420076097        8.5024727083       -8.9265677448  OAC       29              0.0000000000
      1564       129  OAC       LPO22          -6.3018435701        7.9626674265       -9.0352380163  OAC       29              0.0000000000
      1565       130  OAC       C1             -0.9982612851        8.6997426574       -8.5078926596  OAC       30              0.0000000000
      1566       130  OAC       DC1            -1.0286995045        8.7735969598       -8.4716640919  OAC       30              0.0000000000
      1567       130  OAC       C2              0.0810118398        9.6715112958       -8.9091826217  OAC       30              0.0000000000
      1568       130  OAC       DC2             0.1181002002        9.6831263887       -8.8858139303  OAC       30              0.0000000000
      1569       130  OAC       H1             -0.3224497177       10.3846051789       -9.6595404608  OAC       30              0.0000000000
      1570       130  OAC       H2              0.8639538816        9.0522254060       -9.3968379785  OAC       30              0.0000000000
      1571       130  OAC       H3              0.4864124989       10.1916283416       -8.0150631855  OAC       30              0.0000000000
      1572       130  OAC       O1             -0.7362498314        7.5052674903       -8.6797676279  OAC       30              0.0000000000
      1573       130  OAC       DO1            -0.7495904290        7.5680448876       -8.6544835409  OAC       30              0.0000000000
      1574       130  OAC       O2             -1.9624772083        9.2224950410       -7.8409403896  OAC       30              0.0000000000
      1575       130  OAC       DO2            -1.9940928077        9.2203518252       -7.8027972222  OAC       30              0.0000000000
      1576       130  OAC       H              -2.5617771703        8.5456134347       -7.4921828140  OAC       30              0.0000000000
      1577       130  OAC       LPO11          -0.4155476164        7.4714308615       -8.8158013438  OAC       30              0.0000000000
      1578       130  OAC       LPO12          -1.0061547614        7.3075260924       -8.5770560497  OAC       30              0.0000000000
      1579       130  OAC       LPO21          -1.9058981053        9.5651229878       -7.7972952852  OAC       30              0.0000000000
      1580       130  OAC       LPO22          -2.1988898770        8.9773643693       -7.7601938489  OAC       30              0.0000000000
      1581       131  OAC       C1              0.3755700043       -7.9412605873       -1.3188126621  OAC       31              0.0000000000
      1582       131  OAC       DC1             0.2825159188       -7.9933103696       -1.3625994223  OAC       31              0.0000000000
      1583       131  OAC       C2              1.3675573718       -6.8936749766       -1.1429232951  OAC       31              0.0000000000
      1584       131  OAC       DC2             1.2265723557       -6.9735397339       -1.1499387200  OAC       31              0.0000000000
      1585       131  OAC       H1              2.3264105300       -7.0330757372       -1.6865123405  OAC       31              0.0000000000
      1586       131  OAC       H2              1.6394135048       -6.8704678888       -0.0659475874  OAC       31              0.0000000000
      1587       131  OAC       H3              0.9060927647       -5.9016823537       -1.3361124578  OAC       31              0.0000000000
      1588       131  OAC       O1             -0.1787983883       -8.6062025218       -0.3685775200  OAC       31              0.0000000000
      1589       131  OAC       DO1            -0.2270775545       -8.5985440940       -0.3447623463  OAC       31              0.0000000000
      1590       131  OAC       O2             -0.1244046671       -7.9333276943       -2.4959121423  OAC       31              0.0000000000
      1591       131  OAC       DO2            -0.1910487296       -7.9112288124       -2.5345066326  OAC       31              0.0000000000
      1592       131  OAC       H              -0.7554896823       -8.6459207949       -2.6773061240  OAC       31              0.0000000000
      1593       131  OAC       LPO11          -0.0557997798       -8.4981111861       -0.0592433876  OAC       31              0.0000000000
      1594       131  OAC       LPO12          -0.4050465324       -8.8381374006       -0.5009330612  OAC       31              0.0000000000
      1595       131  OAC       LPO21           0.0190028206       -7.6761847051       -2.6851521370  OAC       31              0.0000000000
      1596       131  OAC       LPO22          -0.3614085393       -8.1889856281       -2.5270278213  OAC       31              0.0000000000
      1597       132  OAC       C1             -3.3156139588        7.8211570311      -10.1379082083  OAC       32              0.0000000000
      1598       132  OAC       DC1            -3.3680725158        7.7864840940      -10.0938241090  OAC       32              0.0000000000
      1599       132  OAC       C2             -3.8017629795        9.3018412668       -9.8751051050  OAC       32              0.0000000000
      1600       132  OAC       DC2            -3.8385622418        9.3167117701       -9.8783147190  OAC       32              0.0000000000
      1601       132  OAC       H1             -4.6819375924        9.5172329534      -10.5179270654  OAC       32              0.0000000000
      1602       132  OAC       H2             -2.9955479297       10.0396246201      -10.0751401497  OAC       32              0.0000000000
      1603       132  OAC       H3             -4.0915893964        9.4476282017       -8.8125290758  OAC       32              0.0000000000
      1604       132  OAC       O1             -2.5009920529        7.7904072029      -11.0863475964  OAC       32              0.0000000000
      1605       132  OAC       DO1            -2.5362381641        7.8199263149      -11.0536613037  OAC       32              0.0000000000
      1606       132  OAC       O2             -3.8038268460        6.8659645371       -9.4238969785  OAC       32              0.0000000000
      1607       132  OAC       DO2            -3.8485916789        6.8448886960       -9.3720680687  OAC       32              0.0000000000
      1608       132  OAC       H              -3.3603748809        6.0131975154       -9.5467780705  OAC       32              0.0000000000
      1609       132  OAC       LPO11          -2.4510834099        8.1133176339      -11.2117987060  OAC       32              0.0000000000
      1610       132  OAC       LPO12          -2.3949545280        7.4616102153      -11.1424598439  OAC       32              0.0000000000
      1611       132  OAC       LPO21          -4.0341723820        6.9942613181       -9.1937212412  OAC       32              0.0000000000
      1612       132  OAC       LPO22          -3.6641864979        6.5602023165       -9.5214164003  OAC       32              0.0000000000
      1613       133  OAC       C1              6.0956193063       -7.6405467064       -4.0735831115  OAC       33              0.0000000000
      1614       133  OAC       DC1             6.0902069779       -7.6322364478       -4.1092946911  OAC       33              0.0000000000
      1615       133  OAC       C2              4.5784627351       -7.2946098589       -4.2511843876  OAC       33              0.0000000000
      1616       133  OAC       DC2             4.5311955258       -7.3545845296       -4.3016872400  OAC       33              0.0000000000
      1617       133  OAC       H1              4.0703452207       -8.0735482601       -4.8589611228  OAC       33              0.0000000000
      1618       133  OAC       H2              4.4686784324       -6.2596974838       -4.6400606949  OAC       33              0.0000000000
      1619       133  OAC       H3              3.9444742026       -7.3198473759       -3.3391851495  OAC       33              0.0000000000
      1620       133  OAC       O1              7.0018342296       -7.0741161725       -4.7653137466  OAC       33              0.0000000000
      1621       133  OAC       DO1             7.0026013531       -7.0855323439       -4.8114945901  OAC       33              0.0000000000
      1622       133  OAC       O2              6.0776797388       -8.8359885624       -3.6312483933  OAC       33              0.0000000000
      1623       133  OAC       DO2             6.0267868296       -8.8337770779       -3.6537951536  OAC       33              0.0000000000
      1624       133  OAC       H               6.9687806468       -9.1036798256       -3.3606166148  OAC       33              0.0000000000
      1625       133  OAC       LPO11           6.8576440570       -6.8438195756       -4.9859325843  OAC       33              0.0000000000
      1626       133  OAC       LPO12           7.3164553015       -7.1978847673       -4.6747879708  OAC       33              0.0000000000
      1627       133  OAC       LPO21           5.7472886844       -8.9473923024       -3.6007367915  OAC       33              0.0000000000
      1628       133  OAC       LPO22           6.4047015949       -8.9490986392       -3.5786858955  OAC       33              0.0000000000
      1629       134  OAC       C1             -6.0761236906       -5.2775516144       -4.2493205440  OAC       34              0.0000000000
      1630       134  OAC       DC1            -6.0681790939       -5.3616408581       -4.3566418882  OAC       34              0.0000000000
      1631       134  OAC       C2             -7.1109995701       -4.1678336161       -4.0508057267  OAC       34              0.0000000000
      1632       134  OAC       DC2            -7.0708648653       -4.1857580117       -4.0755937011  OAC       34              0.0000000000
      1633       134  OAC       H1             -7.2232491925       -3.4980290855       -4.9300570645  OAC       34              0.0000000000
      1634       134  OAC       H2             -6.9398589261       -3.5808402227       -3.1231901619  OAC       34              0.0000000000
      1635       134  OAC       H3             -8.1124161744       -4.6484051024       -4.0276360792  OAC       34              0.0000000000
      1636       134  OAC       O1             -5.1885563350       -5.3396618459       -3.3583589191  OAC       34              0.0000000000
      1637       134  OAC       DO1            -5.1868457901       -5.3346241366       -3.3904192578  OAC       34              0.0000000000
      1638       134  OAC       O2             -6.2219747078       -6.1196863690       -5.1951659154  OAC       34              0.0000000000
      1639       134  OAC       DO2            -6.2215313002       -6.2075244524       -5.2919843926  OAC       34              0.0000000000
      1640       134  OAC       H              -5.5521735697       -6.8199198448       -5.1944482229  OAC       34              0.0000000000
      1641       134  OAC       LPO11          -5.2418367598       -5.0901976289       -3.1187158496  OAC       34              0.0000000000
      1642       134  OAC       LPO12          -4.9665136616       -5.6009357157       -3.4285943531  OAC       34              0.0000000000
      1643       134  OAC       LPO21          -6.5137433508       -6.0484970361       -5.3748966525  OAC       34              0.0000000000
      1644       134  OAC       LPO22          -5.9575978848       -6.3490343764       -5.1930714170  OAC       34              0.0000000000
      1645       135  OAC       C1              5.4015329603       -6.5809736142       -7.0107534569  OAC       35              0.0000000000
      1646       135  OAC       DC1             5.3757764687       -6.6400472184       -7.0384753555  OAC       35              0.0000000000
      1647       135  OAC       C2              4.0259118128       -5.8127128854       -6.9184558818  OAC       35              0.0000000000
      1648       135  OAC       DC2             3.9491680113       -5.9099531759       -6.9648579395  OAC       35              0.0000000000
      1649       135  OAC       H1              4.1524168447       -4.8623301229       -6.3571270284  OAC       35              0.0000000000
      1650       135  OAC       H2              3.2961194456       -6.3914861502       -6.3128606283  OAC       35              0.0000000000
      1651       135  OAC       H3              3.6465853029       -5.5824060745       -7.9369798982  OAC       35              0.0000000000
      1652       135  OAC       O1              5.2120385180       -7.8415661866       -6.9724490986  OAC       35              0.0000000000
      1653       135  OAC       DO1             5.1784863687       -7.9007976817       -7.0344766648  OAC       35              0.0000000000
      1654       135  OAC       O2              6.4980057202       -6.0638390272       -7.4122266455  OAC       35              0.0000000000
      1655       135  OAC       DO2             6.4936410278       -6.0962879827       -7.4356083813  OAC       35              0.0000000000
      1656       135  OAC       H               7.2762373830       -6.6166912760       -7.2458810099  OAC       35              0.0000000000
      1657       135  OAC       LPO11           4.8700056777       -7.9104126396       -6.9446335987  OAC       35              0.0000000000
      1658       135  OAC       LPO12           5.5184981279       -8.0093670442       -6.9930738348  OAC       35              0.0000000000
      1659       135  OAC       LPO21           6.4477218982       -5.7282875105       -7.4981144615  OAC       35              0.0000000000
      1660       135  OAC       LPO22           6.7538497473       -6.3024412207       -7.4016046401  OAC       35              0.0000000000
      1661       136  OAC       C1              0.3363381432       -5.7185201790      -10.0199111679  OAC       36              0.0000000000
      1662       136  OAC       DC1             0.2796014331       -5.7912660755       -9.9946597773  OAC       36              0.0000000000
      1663       136  OAC       C2             -0.5674592202       -6.9716240419       -9.6706283422  OAC       36              0.0000000000
      1664       136  OAC       DC2            -0.6431137556       -7.1408728633       -9.6463373314  OAC       36              0.0000000000
      1665       136  OAC       H1             -0.9541483787       -6.8770276471       -8.6333993326  OAC       36              0.0000000000
      1666       136  OAC       H2              0.0729568055       -7.8773957262       -9.7319958533  OAC       36              0.0000000000
      1667       136  OAC       H3             -1.4100262158       -7.0051239640      -10.3940090269  OAC       36              0.0000000000
      1668       136  OAC       O1              1.4856072204       -6.1741284082      -10.2723760967  OAC       36              0.0000000000
      1669       136  OAC       DO1             1.4380964541       -6.2046896251      -10.2490027821  OAC       36              0.0000000000
      1670       136  OAC       O2             -0.1722721071       -4.5571705190      -10.0901367685  OAC       36              0.0000000000
      1671       136  OAC       DO2            -0.1963829513       -4.6067920727      -10.0908201541  OAC       36              0.0000000000
      1672       136  OAC       H               0.4628621193       -3.8261486366      -10.0558946370  OAC       36              0.0000000000
      1673       136  OAC       LPO11           1.4860211504       -6.5226165470      -10.2398823157  OAC       36              0.0000000000
      1674       136  OAC       LPO12           1.7032559248       -5.9120875016      -10.3527726436  OAC       36              0.0000000000
      1675       136  OAC       LPO21          -0.5154890406       -4.5725568715      -10.0233131448  OAC       36              0.0000000000
      1676       136  OAC       LPO22           0.0750477650       -4.3228148876      -10.1702012358  OAC       36              0.0000000000
      1677       137  OAC       C1              4.9819872751        9.6521002795        4.4168019425  OAC       37              0.0000000000
      1678       137  OAC       DC1             5.0069409935        9.6332941869        4.3601924570  OAC       37              0.0000000000
      1679       137  OAC       C2              4.4494097428        8.9676969965        3.2049161535  OAC       37              0.0000000000
      1680       137  OAC       DC2             4.4158994987        8.9164378212        3.1887419989  OAC       37              0.0000000000
      1681       137  OAC       H1              4.3179799416        9.7607846597        2.4380659949  OAC       37              0.0000000000
      1682       137  OAC       H2              3.4719257240        8.5025643689        3.4549114209  OAC       37              0.0000000000
      1683       137  OAC       H3              5.1413500947        8.1730536636        2.8526640789  OAC       37              0.0000000000
      1684       137  OAC       O1              4.1105343182        9.8530951652        5.2768472190  OAC       37              0.0000000000
      1685       137  OAC       DO1             4.1187658282        9.8406015798        5.2147626401  OAC       37              0.0000000000
      1686       137  OAC       O2              6.2119094485        9.9411463321        4.3056949787  OAC       37              0.0000000000
      1687       137  OAC       DO2             6.2237846027        9.9344782363        4.2735764461  OAC       37              0.0000000000
      1688       137  OAC       H               6.6259017138       10.2261855464        5.1341417497  OAC       37              0.0000000000
      1689       137  OAC       LPO11           3.8020034588        9.7310331119        5.1654489967  OAC       37              0.0000000000
      1690       137  OAC       LPO12           4.2509128716       10.0139404405        5.5541965640  OAC       37              0.0000000000
      1691       137  OAC       LPO21           6.3319436962        9.8359205830        3.9942157320  OAC       37              0.0000000000
      1692       137  OAC       LPO22           6.3240436488       10.1009343737        4.5962009216  OAC       37              0.0000000000
      1693       138  OAC       C1             -4.3398207373       -2.3028230162        0.4634003647  OAC       38              0.0000000000
      1694       138  OAC       DC1            -4.4086095958       -2.3015423723        0.4281617673  OAC       38              0.0000000000
      1695       138  OAC       C2             -3.6558140349       -1.4363152362        1.4559160743  OAC       38              0.0000000000
      1696       138  OAC       DC2            -3.7275909413       -1.4398123229        1.4402261005  OAC       38              0.0000000000
      1697       138  OAC       H1             -2.6835856155       -1.1181099950        1.0225128839  OAC       38              0.0000000000
      1698       138  OAC       H2             -3.3803119592       -1.9085203093        2.4230985684  OAC       38              0.0000000000
      1699       138  OAC       H3             -4.3181467290       -0.5550202036        1.5935949324  OAC       38              0.0000000000
      1700       138  OAC       O1             -4.4512301441       -3.4653458585        0.9032007801  OAC       38              0.0000000000
      1701       138  OAC       DO1            -4.4489412335       -3.4602907030        0.9237849987  OAC       38              0.0000000000
      1702       138  OAC       O2             -4.9214555226       -1.7073692957       -0.5223186927  OAC       38              0.0000000000
      1703       138  OAC       DO2            -4.9403059763       -1.6264514534       -0.5318569844  OAC       38              0.0000000000
      1704       138  OAC       H              -5.2801521583       -2.3068796114       -1.1937984810  OAC       38              0.0000000000
      1705       138  OAC       LPO11          -4.3111361002       -3.4861876743        1.2232621454  OAC       38              0.0000000000
      1706       138  OAC       LPO12          -4.6126981990       -3.6675352631        0.6675155834  OAC       38              0.0000000000
      1707       138  OAC       LPO21          -4.8803477830       -1.3609483473       -0.4939870805  OAC       38              0.0000000000
      1708       138  OAC       LPO22          -5.0704970420       -1.9432920890       -0.7335698728  OAC       38              0.0000000000
      1709       139  OAC       C1              8.5393232343        9.7616320187        0.6651172600  OAC       39              0.0000000000
      1710       139  OAC       DC1             8.5642735523        9.7344398717        0.5773962625  OAC       39              0.0000000000
      1711       139  OAC       C2              7.3821886661        9.5364077982        1.6005868706  OAC       39              0.0000000000
      1712       139  OAC       DC2             7.4552139369        9.5126560421        1.5273162399  OAC       39              0.0000000000
      1713       139  OAC       H1              6.5477032953       10.2650736192        1.5169131761  OAC       39              0.0000000000
      1714       139  OAC       H2              7.7709590560        9.5278675617        2.6413104889  OAC       39              0.0000000000
      1715       139  OAC       H3              6.9875455571        8.5026985289        1.5004721193  OAC       39              0.0000000000
      1716       139  OAC       O1              9.7005640772        9.8585153096        1.1688985421  OAC       39              0.0000000000
      1717       139  OAC       DO1             9.6941434084        9.8355006847        1.1644524459  OAC       39              0.0000000000
      1718       139  OAC       O2              8.3573244490        9.5441976740       -0.5833002195  OAC       39              0.0000000000
      1719       139  OAC       DO2             8.4000058443        9.4824622314       -0.6359418758  OAC       39              0.0000000000
      1720       139  OAC       H               9.0367608574        9.9153938510       -1.1660013138  OAC       39              0.0000000000
      1721       139  OAC       LPO11           9.6832420220        9.8252455249        1.5168828346  OAC       39              0.0000000000
      1722       139  OAC       LPO12           9.9368815415        9.9100560638        0.9159210594  OAC       39              0.0000000000
      1723       139  OAC       LPO21           8.0285604032        9.4381919029       -0.6396649134  OAC       39              0.0000000000
      1724       139  OAC       LPO22           8.6520527155        9.6095408254       -0.7604033576  OAC       39              0.0000000000
      1725       140  OAC       C1             -9.3680709471        7.4229155156       -5.3793341506  OAC       40              0.0000000000
      1726       140  OAC       DC1            -9.2869790156        7.3790572017       -5.3760632319  OAC       40              0.0000000000
      1727       140  OAC       C2             -8.9928009750        8.7219885109       -6.1234884300  OAC       40              0.0000000000
      1728       140  OAC       DC2            -9.0185846151        8.7101337764       -6.1444531728  OAC       40              0.0000000000
      1729       140  OAC       H1             -7.9757082889        9.0677381748       -5.8401147568  OAC       40              0.0000000000
      1730       140  OAC       H2             -9.7048419482        9.5528055354       -5.9309742100  OAC       40              0.0000000000
      1731       140  OAC       H3             -9.0346933870        8.4703739563       -7.2048099093  OAC       40              0.0000000000
      1732       140  OAC       O1            -10.5810892540        7.3476017313       -5.0885164920  OAC       40              0.0000000000
      1733       140  OAC       DO1           -10.5309199885        7.3467910887       -5.1187691836  OAC       40              0.0000000000
      1734       140  OAC       O2             -8.4755395321        6.5223617617       -5.1871085819  OAC       40              0.0000000000
      1735       140  OAC       DO2            -8.4775327120        6.4140578786       -5.2179093012  OAC       40              0.0000000000
      1736       140  OAC       H              -8.7255796011        5.8232003108       -4.5645218571  OAC       40              0.0000000000
      1737       140  OAC       LPO11         -10.7489701138        7.6336484358       -5.2002899225  OAC       40              0.0000000000
      1738       140  OAC       LPO12         -10.6456017827        7.0471262046       -4.9210274132  OAC       40              0.0000000000
      1739       140  OAC       LPO21          -8.1701529074        6.6254413284       -5.3235402951  OAC       40              0.0000000000
      1740       140  OAC       LPO22          -8.6142980091        6.2511563437       -5.0147899633  OAC       40              0.0000000000
      1741       141  OAC       C1              9.0283178719        0.9160798344        1.6461528750  OAC       41              0.0000000000
      1742       141  OAC       DC1             8.8466023764        1.0534338058        1.6799724019  OAC       41              0.0000000000
      1743       141  OAC       C2              9.3032514100       -0.4637672327        2.0880134091  OAC       41              0.0000000000
      1744       141  OAC       DC2             9.2704304000       -0.2965367839        2.0369062192  OAC       41              0.0000000000
      1745       141  OAC       H1              9.3615947819       -1.1245011360        1.1967515162  OAC       41              0.0000000000
      1746       141  OAC       H2              8.5072093637       -0.8821184811        2.7404092200  OAC       41              0.0000000000
      1747       141  OAC       H3             10.2616731097       -0.5313132857        2.6458542253  OAC       41              0.0000000000
      1748       141  OAC       O1              7.9225227216        1.4067006726        1.8425308613  OAC       41              0.0000000000
      1749       141  OAC       DO1             7.7541687227        1.4642558811        1.8746286107  OAC       41              0.0000000000
      1750       141  OAC       O2             10.0198727078        1.6251445867        1.2120154359  OAC       41              0.0000000000
      1751       141  OAC       DO2            10.0062757366        1.6021826042        1.2195403763  OAC       41              0.0000000000
      1752       141  OAC       H               9.7411674004        2.4899418699        0.8752514079  OAC       41              0.0000000000
      1753       141  OAC       LPO11           7.7161266380        1.1754677095        2.0051099912  OAC       41              0.0000000000
      1754       141  OAC       LPO12           7.9129050840        1.7337749251        1.7183135742  OAC       41              0.0000000000
      1755       141  OAC       LPO21          10.3154176414        1.4380827166        1.2247059432  OAC       41              0.0000000000
      1756       141  OAC       LPO22           9.9077842625        1.9433969112        1.1190012521  OAC       41              0.0000000000
      1757       142  OAC       C1              8.1586146425        4.5280418379       -3.4819106015  OAC       42              0.0000000000
      1758       142  OAC       DC1             8.1681693576        4.5897045377       -3.4961550264  OAC       42              0.0000000000
      1759       142  OAC       C2              9.5557912537        3.9273983437       -3.8132805429  OAC       42              0.0000000000
      1760       142  OAC       DC2             9.5359729429        3.9677745988       -3.8243903004  OAC       42              0.0000000000
      1761       142  OAC       H1             10.1365073416        3.7650414341       -2.8801513656  OAC       42              0.0000000000
      1762       142  OAC       H2             10.1676097871        4.6031227409       -4.4484148779  OAC       42              0.0000000000
      1763       142  OAC       H3              9.4277415357        2.9551853260       -4.3355124060  OAC       42              0.0000000000
      1764       142  OAC       O1              8.0926072588        5.7528203840       -3.8235543151  OAC       42              0.0000000000
      1765       142  OAC       DO1             8.0781257983        5.8133109317       -3.8089311175  OAC       42              0.0000000000
      1766       142  OAC       O2              7.2597601723        3.8442131168       -2.8856842779  OAC       42              0.0000000000
      1767       142  OAC       DO2             7.2836678012        3.8748076372       -2.8671056072  OAC       42              0.0000000000
      1768       142  OAC       H               6.4349162297        4.3134342904       -2.6896614198  OAC       42              0.0000000000
      1769       142  OAC       LPO11           8.3963343902        5.8542158231       -3.9648653004  OAC       42              0.0000000000
      1770       142  OAC       LPO12           7.7764684831        5.8817251742       -3.7464840251  OAC       42              0.0000000000
      1771       142  OAC       LPO21           7.3796568494        3.5225488003       -2.8174431299  OAC       42              0.0000000000
      1772       142  OAC       LPO22           6.9713611763        4.0376845734       -2.8421548096  OAC       42              0.0000000000
      1773       143  OAC       C1              8.7107927219        5.1182748173        9.1558871041  OAC       43              0.0000000000
      1774       143  OAC       DC1             8.7587137087        5.1168874313        9.1379998070  OAC       43              0.0000000000
      1775       143  OAC       C2              7.1935242211        4.7168994951        9.2099311984  OAC       43              0.0000000000
      1776       143  OAC       DC2             7.2117128396        4.7054427505        9.2324066554  OAC       43              0.0000000000
      1777       143  OAC       H1              6.9776874074        4.0539385757       10.0749273199  OAC       43              0.0000000000
      1778       143  OAC       H2              6.7955694700        4.2591847883        8.2790980960  OAC       43              0.0000000000
      1779       143  OAC       H3              6.6067745773        5.6509653155        9.3424713758  OAC       43              0.0000000000
      1780       143  OAC       O1              9.4953500954        4.8761968943        8.1738213102  OAC       43              0.0000000000
      1781       143  OAC       DO1             9.5016431809        4.8779550458        8.1163735070  OAC       43              0.0000000000
      1782       143  OAC       O2              9.0681355510        5.7930931960       10.1876573005  OAC       43              0.0000000000
      1783       143  OAC       DO2             9.0717706520        5.7967903456       10.1853575842  OAC       43              0.0000000000
      1784       143  OAC       H               9.9363839503        6.2043302762       10.0612065939  OAC       43              0.0000000000
      1785       143  OAC       LPO11           9.3218235448        4.7080548091        7.9206084049  OAC       43              0.0000000000
      1786       143  OAC       LPO12           9.8156137410        4.9990627354        8.2433567860  OAC       43              0.0000000000
      1787       143  OAC       LPO21           8.7956940704        5.8354124580       10.4032604538  OAC       43              0.0000000000
      1788       143  OAC       LPO22           9.4072278997        5.8766397051       10.1644978557  OAC       43              0.0000000000
      1789       144  OAC       C1              7.9400072401        7.9281530938        7.3479140605  OAC       44              0.0000000000
      1790       144  OAC       DC1             7.9437944754        7.9266469222        7.3089019964  OAC       44              0.0000000000
      1791       144  OAC       C2              9.1992947949        8.2335574002        8.2355500914  OAC       44              0.0000000000
      1792       144  OAC       DC2             9.2224528047        8.2574637759        8.1517490327  OAC       44              0.0000000000
      1793       144  OAC       H1              8.8984194096        8.1625506217        9.3026738143  OAC       44              0.0000000000
      1794       144  OAC       H2              9.5672451272        9.2733287259        8.1020991814  OAC       44              0.0000000000
      1795       144  OAC       H3             10.0334179216        7.5293470641        8.0290375907  OAC       44              0.0000000000
      1796       144  OAC       O1              7.7201756230        8.9018034585        6.5898996300  OAC       44              0.0000000000
      1797       144  OAC       DO1             7.8364215676        8.9245425260        6.5565821620  OAC       44              0.0000000000
      1798       144  OAC       O2              7.6329484152        6.7123159144        7.1237125062  OAC       44              0.0000000000
      1799       144  OAC       DO2             7.6718196259        6.6920245149        7.0834260348  OAC       44              0.0000000000
      1800       144  OAC       H               6.8548143828        6.5670661107        6.5648109729  OAC       44              0.0000000000
      1801       144  OAC       LPO11           7.9584015207        9.1523060455        6.6446433563  OAC       44              0.0000000000
      1802       144  OAC       LPO12           7.4399579088        8.8372857087        6.3903614318  OAC       44              0.0000000000
      1803       144  OAC       LPO21           7.8611824377        6.4999224762        7.2827667685  OAC       44              0.0000000000
      1804       144  OAC       LPO22           7.3470062271        6.6962067741        6.9225221468  OAC       44              0.0000000000
      1805       145  OAC       C1             -3.7960229941       -5.2272189293       -8.7668508956  OAC       45              0.0000000000
      1806       145  OAC       DC1            -4.1190495094       -5.2792815134       -9.0256962094  OAC       45              0.0000000000
      1807       145  OAC       C2             -3.6823170033       -5.2028534120       -7.2399479484  OAC       45              0.0000000000
      1808       145  OAC       DC2            -3.7465674056       -5.2224837802       -7.3790583505  OAC       45              0.0000000000
      1809       145  OAC       H1             -3.0686442046       -6.0585476796       -6.8856683709  OAC       45              0.0000000000
      1810       145  OAC       H2             -4.6285961864       -5.2512819940       -6.6598347003  OAC       45              0.0000000000
      1811       145  OAC       H3             -3.2152304431       -4.2509946515       -6.9081105707  OAC       45              0.0000000000
      1812       145  OAC       O1             -4.7493261124       -5.3939289362       -9.3462670022  OAC       45              0.0000000000
      1813       145  OAC       DO1            -5.0998453807       -5.4881975994       -9.2723497908  OAC       45              0.0000000000
      1814       145  OAC       O2             -2.7075427729       -5.1604840454       -9.2091576489  OAC       45              0.0000000000
      1815       145  OAC       DO2            -2.8631620317       -5.1617335963       -9.1016406871  OAC       45              0.0000000000
      1816       145  OAC       H              -2.6432238285       -5.0759421721      -10.1723174203  OAC       45              0.0000000000
      1817       145  OAC       LPO11          -5.0171169720       -5.4395804994       -9.1255771967  OAC       45              0.0000000000
      1818       145  OAC       LPO12          -4.6838770571       -5.3836621347       -9.6899398320  OAC       45              0.0000000000
      1819       145  OAC       LPO21          -2.4736855224       -5.1422232067       -8.9493936634  OAC       45              0.0000000000
      1820       145  OAC       LPO22          -2.7199557223       -5.1651681012       -9.5589060989  OAC       45              0.0000000000
      1821       146  OAC       C1              3.6499760916        6.2573109644       -2.6924651273  OAC       46              0.0000000000
      1822       146  OAC       DC1             3.5831813477        6.2568370282       -2.6416584586  OAC       46              0.0000000000
      1823       146  OAC       C2              4.6905742922        5.7646744504       -3.4332150669  OAC       46              0.0000000000
      1824       146  OAC       DC2             4.6012209455        5.8519412762       -3.3788805838  OAC       46              0.0000000000
      1825       146  OAC       H1              4.6655038214        4.6586063175       -3.3316977837  OAC       46              0.0000000000
      1826       146  OAC       H2              5.7142652933        6.1380852700       -3.2165538218  OAC       46              0.0000000000
      1827       146  OAC       H3              4.4563671842        6.1534787650       -4.4472659719  OAC       46              0.0000000000
      1828       146  OAC       O1              3.9351030486        7.3749956228       -2.3073110419  OAC       46              0.0000000000
      1829       146  OAC       DO1             3.9099892679        7.3946994701       -2.3194193894  OAC       46              0.0000000000
      1830       146  OAC       O2              2.5608161857        5.7204929282       -2.4086478954  OAC       46              0.0000000000
      1831       146  OAC       DO2             2.5155548411        5.7499775428       -2.3819038634  OAC       46              0.0000000000
      1832       146  OAC       H               1.9506003119        6.2628840714       -1.8867193223  OAC       46              0.0000000000
      1833       146  OAC       LPO11           4.2538013932        7.4634042233       -2.4218330246  OAC       46              0.0000000000
      1834       146  OAC       LPO12           3.6725385070        7.5066289680       -2.1169626142  OAC       46              0.0000000000
      1835       146  OAC       LPO21           2.5445370928        5.4007186212       -2.5499963433  OAC       46              0.0000000000
      1836       146  OAC       LPO22           2.3679842905        5.9372019742       -2.2128085490  OAC       46              0.0000000000
      1837       147  OAC       C1              5.2629780341       -0.0449633769        7.0966666797  OAC       47              0.0000000000
      1838       147  OAC       DC1             5.2433204678        0.0061040177        7.0764484682  OAC       47              0.0000000000
      1839       147  OAC       C2              3.8523314648        0.3893134757        6.8549705669  OAC       47              0.0000000000
      1840       147  OAC       DC2             3.7878479624        0.4048889423        6.8566596870  OAC       47              0.0000000000
      1841       147  OAC       H1              3.7045187797        1.4904241771        6.8602274014  OAC       47              0.0000000000
      1842       147  OAC       H2              3.2430844801       -0.0486481236        7.6743171062  OAC       47              0.0000000000
      1843       147  OAC       H3              3.5806049481        0.0150002803        5.8448342729  OAC       47              0.0000000000
      1844       147  OAC       O1              5.4262486016       -0.9210262213        7.9527951261  OAC       47              0.0000000000
      1845       147  OAC       DO1             5.3983136639       -0.8857321729        7.9267199305  OAC       47              0.0000000000
      1846       147  OAC       O2              6.0872527199        0.7424945459        6.5564305715  OAC       47              0.0000000000
      1847       147  OAC       DO2             6.0603717045        0.7802742071        6.5455156175  OAC       47              0.0000000000
      1848       147  OAC       H               6.9945270105        0.4090132215        6.4885736032  OAC       47              0.0000000000
      1849       147  OAC       LPO11           5.1176059329       -1.0144267672        8.0888687867  OAC       47              0.0000000000
      1850       147  OAC       LPO12           5.7665230761       -0.9973528362        7.9825865647  OAC       47              0.0000000000
      1851       147  OAC       LPO21           5.9166358271        1.0005269311        6.3926955292  OAC       47              0.0000000000
      1852       147  OAC       LPO22           6.4143052106        0.6339104614        6.6176364933  OAC       47              0.0000000000
      1853       148  OAC       C1              1.7381181444       -1.7494316795       -9.2415972028  OAC       48              0.0000000000
      1854       148  OAC       DC1             1.6435486440       -1.7666536352       -9.2099872527  OAC       48              0.0000000000
      1855       148  OAC       C2              2.3678184762       -2.9221036957       -8.4133503818  OAC       48              0.0000000000
      1856       148  OAC       DC2             2.3209880438       -2.9538687036       -8.3937160746  OAC       48              0.0000000000
      1857       148  OAC       H1              2.0538039368       -2.8746141407       -7.3487093093  OAC       48              0.0000000000
      1858       148  OAC       H2              3.4767795351       -2.8596938078       -8.3882231401  OAC       48              0.0000000000
      1859       148  OAC       H3              2.0632872213       -3.9003137381       -8.8431024377  OAC       48              0.0000000000
      1860       148  OAC       O1              2.4126229788       -1.0728185152      -10.0417036138  OAC       48              0.0000000000
      1861       148  OAC       DO1             2.3918587323       -1.1176276805      -10.0078814621  OAC       48              0.0000000000
      1862       148  OAC       O2              0.4777742780       -1.6686403165       -9.0715214044  OAC       48              0.0000000000
      1863       148  OAC       DO2             0.3970472091       -1.6659553652       -9.0724119343  OAC       48              0.0000000000
      1864       148  OAC       H               0.1021225540       -0.8200428625       -9.3503208748  OAC       48              0.0000000000
      1865       148  OAC       LPO11           2.7436295848       -1.1864942378      -10.0452330451  OAC       48              0.0000000000
      1866       148  OAC       LPO12           2.2112025010       -0.8291516114      -10.1918909338  OAC       48              0.0000000000
      1867       148  OAC       LPO21           0.3705893493       -1.9179277532       -8.8504622155  OAC       48              0.0000000000
      1868       148  OAC       LPO22           0.3481729434       -1.4041742564       -9.2606277160  OAC       48              0.0000000000
      1869       149  OAC       C1             -8.9982722974       -6.7137272896        0.9245004278  OAC       49              0.0000000000
      1870       149  OAC       DC1            -8.9533749205       -6.6717176225        0.8427285494  OAC       49              0.0000000000
      1871       149  OAC       C2             -9.3965153750       -7.1751397242        2.2528515394  OAC       49              0.0000000000
      1872       149  OAC       DC2            -9.3344511152       -7.1246118448        2.1456915884  OAC       49              0.0000000000
      1873       149  OAC       H1             -9.2143583887       -6.3565705880        2.9816069195  OAC       49              0.0000000000
      1874       149  OAC       H2             -8.7746319648       -8.0335318138        2.5856353226  OAC       49              0.0000000000
      1875       149  OAC       H3            -10.4546212532       -7.5108831411        2.2976768767  OAC       49              0.0000000000
      1876       149  OAC       O1             -7.9747143279       -7.3230049934        0.4774039757  OAC       49              0.0000000000
      1877       149  OAC       DO1            -7.9025346924       -7.2659383969        0.4543615932  OAC       49              0.0000000000
      1878       149  OAC       O2             -9.4190094201       -5.6237397141        0.3866470846  OAC       49              0.0000000000
      1879       149  OAC       DO2            -9.3639277571       -5.5340559300        0.3802437629  OAC       49              0.0000000000
      1880       149  OAC       H              -9.2779729935       -5.5476407463       -0.5690090637  OAC       49              0.0000000000
      1881       149  OAC       LPO11          -7.8644337048       -7.5591451608        0.7110190555  OAC       49              0.0000000000
      1882       149  OAC       LPO12          -7.8923899677       -7.2015138497        0.1596578479  OAC       49              0.0000000000
      1883       149  OAC       LPO21          -9.6386338507       -5.4598272821        0.6043574979  OAC       49              0.0000000000
      1884       149  OAC       LPO22          -9.2776996502       -5.5847653491        0.0688223722  OAC       49              0.0000000000
      1885       150  OAC       C1             -5.3327279120        7.9846688725        4.6517273030  OAC       50              0.0000000000
      1886       150  OAC       DC1            -5.4221524013        7.9610061272        4.5387781308  OAC       50              0.0000000000
      1887       150  OAC       C2             -5.0869411527        9.0646948275        5.6772555712  OAC       50              0.0000000000
      1888       150  OAC       DC2            -5.0856835701        9.0370005680        5.5351245917  OAC       50              0.0000000000
      1889       150  OAC       H1             -4.4301911153        8.6155890153        6.4526937428  OAC       50              0.0000000000
      1890       150  OAC       H2             -5.9538804089        9.5470719302        6.1773052270  OAC       50              0.0000000000
      1891       150  OAC       H3             -4.5217184977        9.9205655784        5.2502548572  OAC       50              0.0000000000
      1892       150  OAC       O1             -6.3380337221        7.6609179166        3.9565657915  OAC       50              0.0000000000
      1893       150  OAC       DO1            -6.3613235020        7.6316302904        3.8381701730  OAC       50              0.0000000000
      1894       150  OAC       O2             -4.1926757201        7.8352670576        4.1122994005  OAC       50              0.0000000000
      1895       150  OAC       DO2            -4.2177683522        7.8274291226        4.0876798045  OAC       50              0.0000000000
      1896       150  OAC       H              -4.1558398453        7.1650667874        3.4134176379  OAC       50              0.0000000000
      1897       150  OAC       LPO11          -6.6062647769        7.8743227707        4.0273504614  OAC       50              0.0000000000
      1898       150  OAC       LPO12          -6.2601574921        7.3862107643        3.7541521721  OAC       50              0.0000000000
      1899       150  OAC       LPO21          -3.9615660969        8.0537868761        4.2583727758  OAC       50              0.0000000000
      1900       150  OAC       LPO22          -4.2088765111        7.5885838182        3.8645396099  OAC       50              0.0000000000
      1901       151  OAC       C1              1.0233971061        8.5910547022        5.5083744088  OAC       51              0.0000000000
      1902       151  OAC       DC1             0.9597863556        8.6123950324        5.4564264011  OAC       51              0.0000000000
      1903       151  OAC       C2              1.3236138631        7.0931353991        5.7508280588  OAC       51              0.0000000000
      1904       151  OAC       DC2             1.2809346116        7.1198715768        5.6971620929  OAC       51              0.0000000000
      1905       151  OAC       H1              2.3539941270        6.8333493294        5.4265616392  OAC       51              0.0000000000
      1906       151  OAC       H2              0.6513900026        6.4149762433        5.1829053159  OAC       51              0.0000000000
      1907       151  OAC       H3              1.1901230154        6.8082166111        6.8163431822  OAC       51              0.0000000000
      1908       151  OAC       O1              0.2171097794        8.7979299073        4.5577455677  OAC       51              0.0000000000
      1909       151  OAC       DO1             0.1701461507        8.8245580194        4.5130173357  OAC       51              0.0000000000
      1910       151  OAC       O2              1.2927947127        9.5431348348        6.3138823630  OAC       51              0.0000000000
      1911       151  OAC       DO2             1.1877161737        9.5414046459        6.3104830149  OAC       51              0.0000000000
      1912       151  OAC       H               1.2482829354       10.4246833238        5.9140674517  OAC       51              0.0000000000
      1913       151  OAC       LPO11           0.1187016515        8.4934946757        4.4158476109  OAC       51              0.0000000000
      1914       151  OAC       LPO12           0.1627463129        9.1415628962        4.5195227673  OAC       51              0.0000000000
      1915       151  OAC       LPO21           1.4464045543        9.4165283039        6.6017622041  OAC       51              0.0000000000
      1916       151  OAC       LPO22           1.1897362457        9.8483953633        6.1771528414  OAC       51              0.0000000000
      1917       152  OAC       C1             -9.1737831684        8.0833796277        6.1534853426  OAC       52              0.0000000000
      1918       152  OAC       DC1            -9.2155931745        8.1347743822        6.1410618774  OAC       52              0.0000000000
      1919       152  OAC       C2             -9.6190303736        6.6163388497        6.2167038361  OAC       52              0.0000000000
      1920       152  OAC       DC2            -9.6334739351        6.6649268528        6.1603259778  OAC       52              0.0000000000
      1921       152  OAC       H1            -10.2658136307        6.4814292408        7.1098957617  OAC       52              0.0000000000
      1922       152  OAC       H2             -8.7842464542        5.8906188396        6.3205656511  OAC       52              0.0000000000
      1923       152  OAC       H3            -10.1929781394        6.2948287293        5.3214182924  OAC       52              0.0000000000
      1924       152  OAC       O1             -7.9984213935        8.4956922231        6.0245656160  OAC       52              0.0000000000
      1925       152  OAC       DO1            -8.0204334543        8.5206052371        5.9974113878  OAC       52              0.0000000000
      1926       152  OAC       O2            -10.1448462454        8.9165287922        6.0167773443  OAC       52              0.0000000000
      1927       152  OAC       DO2           -10.1371944808        8.9678211721        5.9639184056  OAC       52              0.0000000000
      1928       152  OAC       H              -9.8223708500        9.8256522747        5.9247712954  OAC       52              0.0000000000
      1929       152  OAC       LPO11          -7.7780102598        8.2245747501        6.0042125318  OAC       52              0.0000000000
      1930       152  OAC       LPO12          -7.9941161175        8.8456393874        6.0202706483  OAC       52              0.0000000000
      1931       152  OAC       LPO21         -10.4492913209        8.7443809405        6.0034239480  OAC       52              0.0000000000
      1932       152  OAC       LPO22         -10.0210746975        9.2436902595        6.0046951979  OAC       52              0.0000000000
      1933       153  OAC       C1              9.9243935690        8.5069085253       -7.1389036834  OAC       53              0.0000000000
      1934       153  OAC       DC1             9.9397459957        8.4853476128       -7.1494542856  OAC       53              0.0000000000
      1935       153  OAC       C2              9.3011578895        8.0380175704       -5.8174749657  OAC       53              0.0000000000
      1936       153  OAC       DC2             9.2990145451        8.0544614124       -5.8240154106  OAC       53              0.0000000000
      1937       153  OAC       H1              9.8733596559        8.4407468098       -4.9545060788  OAC       53              0.0000000000
      1938       153  OAC       H2              9.2751809906        6.9289862288       -5.7566828198  OAC       53              0.0000000000
      1939       153  OAC       H3              8.2480728299        8.3895175699       -5.7752777179  OAC       53              0.0000000000
      1940       153  OAC       O1             10.3401333464        7.5962770438       -7.9251684137  OAC       53              0.0000000000
      1941       153  OAC       DO1            10.3388245067        7.5762980948       -7.9396488818  OAC       53              0.0000000000
      1942       153  OAC       O2              9.9614934083        9.7775430742       -7.2849241709  OAC       53              0.0000000000
      1943       153  OAC       DO2             9.9604373833        9.7681269696       -7.2781420392  OAC       53              0.0000000000
      1944       153  OAC       H              10.1925927460       10.0723729553       -8.1785848665  OAC       53              0.0000000000
      1945       153  OAC       LPO11          10.2835044451        7.2811063666       -7.7838863843  OAC       53              0.0000000000
      1946       153  OAC       LPO12          10.4749562402        7.7401725261       -8.2143342440  OAC       53              0.0000000000
      1947       153  OAC       LPO21           9.8225778796        9.9343650530       -7.0045505936  OAC       53              0.0000000000
      1948       153  OAC       LPO22          10.1073506953        9.8584697777       -7.5926196705  OAC       53              0.0000000000
      1949       154  OAC       C1              6.9946961659        9.6774509511       -8.8963315929  OAC       54              0.0000000000
      1950       154  OAC       DC1             7.0043108504        9.6455021657       -8.8954888908  OAC       54              0.0000000000
      1951       154  OAC       C2              6.5972524121        9.6671261670       -7.4039585960  OAC       54              0.0000000000
      1952       154  OAC       DC2             6.5473034658        9.6404232946       -7.4005710652  OAC       54              0.0000000000
      1953       154  OAC       H1              6.6202122080        8.6237083763       -7.0230738855  OAC       54              0.0000000000
      1954       154  OAC       H2              5.5799798387       10.0801890153       -7.2340863063  OAC       54              0.0000000000
      1955       154  OAC       H3              7.3480591312       10.2551498617       -6.8340126286  OAC       54              0.0000000000
      1956       154  OAC       O1              6.3084209578       10.4467645936       -9.6202043627  OAC       54              0.0000000000
      1957       154  OAC       DO1             6.2986039504       10.4317665099       -9.5981152687  OAC       54              0.0000000000
      1958       154  OAC       O2              7.7074623682        8.6773622774       -9.2433533365  OAC       54              0.0000000000
      1959       154  OAC       DO2             7.6942421322        8.6261918909       -9.2434796953  OAC       54              0.0000000000
      1960       154  OAC       H               8.0965979868        8.7457900254      -10.1281426422  OAC       54              0.0000000000
      1961       154  OAC       LPO11           6.0672590800       10.6101830151       -9.4262059911  OAC       54              0.0000000000
      1962       154  OAC       LPO12           6.4191503661       10.4295608059       -9.9517809418  OAC       54              0.0000000000
      1963       154  OAC       LPO21           7.7623858913        8.4682479178       -8.9681178169  OAC       54              0.0000000000
      1964       154  OAC       LPO22           7.7862552403        8.6988579592       -9.5836908439  OAC       54              0.0000000000
      1965       155  OAC       C1             -4.8220056109        2.8810407365       -9.5892981356  OAC       55              0.0000000000
      1966       155  OAC       DC1            -4.9899357885        2.8592044264       -9.5189888517  OAC       55              0.0000000000
      1967       155  OAC       C2             -4.1687402779        1.4707836013       -9.4663461642  OAC       55              0.0000000000
      1968       155  OAC       DC2            -4.2707247753        1.4397433758       -9.4662716990  OAC       55              0.0000000000
      1969       155  OAC       H1             -3.5969949206        1.1821955827      -10.3741705988  OAC       55              0.0000000000
      1970       155  OAC       H2             -4.8371054847        0.6317333936       -9.1772031198  OAC       55              0.0000000000
      1971       155  OAC       H3             -3.4761287768        1.5560765888       -8.6018605269  OAC       55              0.0000000000
      1972       155  OAC       O1             -6.0332164506        3.0056005990       -9.2474805907  OAC       55              0.0000000000
      1973       155  OAC       DO1            -6.1510357409        2.9958514737       -9.2188958456  OAC       55              0.0000000000
      1974       155  OAC       O2             -4.0816775089        3.7014176215      -10.1104989988  OAC       55              0.0000000000
      1975       155  OAC       DO2            -4.1423826905        3.6133243413      -10.0613815689  OAC       55              0.0000000000
      1976       155  OAC       H              -4.3346786920        4.6278138067       -9.9811100089  OAC       55              0.0000000000
      1977       155  OAC       LPO11          -6.1591237586        2.6977371482       -9.1385427852  OAC       55              0.0000000000
      1978       155  OAC       LPO12          -6.1366032089        3.3370444509       -9.2917089896  OAC       55              0.0000000000
      1979       155  OAC       LPO21          -3.7760079772        3.5518577948      -10.1923402818  OAC       55              0.0000000000
      1980       155  OAC       LPO22          -4.2422763100        4.0117341096      -10.1307894460  OAC       55              0.0000000000
      1981       156  OAC       C1             -1.4772063533        8.8724186627       -1.2527804822  OAC       56              0.0000000000
      1982       156  OAC       DC1            -1.5112070671        8.8988099517       -1.3267018243  OAC       56              0.0000000000
      1983       156  OAC       C2             -1.4139170360        7.4241783673       -0.7955446816  OAC       56              0.0000000000
      1984       156  OAC       DC2            -1.5257561520        7.4849348380       -0.8597313296  OAC       56              0.0000000000
      1985       156  OAC       H1             -2.3440703125        6.8338043181       -0.9390520538  OAC       56              0.0000000000
      1986       156  OAC       H2             -1.3204699267        7.3343614985        0.3078689167  OAC       56              0.0000000000
      1987       156  OAC       H3             -0.5599823803        6.8724056162       -1.2434994056  OAC       56              0.0000000000
      1988       156  OAC       O1             -1.5570825271        9.8972691238       -0.5313637623  OAC       56              0.0000000000
      1989       156  OAC       DO1            -1.5754254009        9.8608421581       -0.5380699391  OAC       56              0.0000000000
      1990       156  OAC       O2             -2.0176361363        8.7948456517       -2.3918153401  OAC       56              0.0000000000
      1991       156  OAC       DO2            -2.1088025161        8.7258993633       -2.4191246114  OAC       56              0.0000000000
      1992       156  OAC       H              -2.1217541071        9.6667879010       -2.8014946828  OAC       56              0.0000000000
      1993       156  OAC       LPO11          -1.5634519542        9.8057091672       -0.1936120714  OAC       56              0.0000000000
      1994       156  OAC       LPO12          -1.5659407102       10.1842067829       -0.7315844216  OAC       56              0.0000000000
      1995       156  OAC       LPO21          -2.0881215059        8.4606714632       -2.4683622172  OAC       56              0.0000000000
      1996       156  OAC       LPO22          -2.0495844998        9.1143165553       -2.5311625462  OAC       56              0.0000000000
      1997       157  OAC       C1            -10.0851776042        0.7253838563       -0.2452852541  OAC       57              0.0000000000
      1998       157  OAC       DC1           -10.0475606758        0.7304857639       -0.2857886265  OAC       57              0.0000000000
      1999       157  OAC       C2             -9.5633359348        1.2112223772       -1.6035957392  OAC       57              0.0000000000
      2000       157  OAC       DC2            -9.4944859998        1.2411317203       -1.6551879794  OAC       57              0.0000000000
      2001       157  OAC       H1             -8.5481905201        0.7961618040       -1.7811499822  OAC       57              0.0000000000
      2002       157  OAC       H2             -9.5109272092        2.3209565474       -1.6116206610  OAC       57              0.0000000000
      2003       157  OAC       H3            -10.2517083987        0.8593203720       -2.4014862894  OAC       57              0.0000000000
      2004       157  OAC       O1            -10.2349361788        1.5916280164        0.6449333866  OAC       57              0.0000000000
      2005       157  OAC       DO1           -10.1963252123        1.5616669832        0.6461057269  OAC       57              0.0000000000
      2006       157  OAC       O2             -9.8153986734       -0.5083637348       -0.1233625412  OAC       57              0.0000000000
      2007       157  OAC       DO2            -9.7765026977       -0.4960964817       -0.1188040459  OAC       57              0.0000000000
      2008       157  OAC       H             -10.0291862528       -0.9029232356        0.7354614636  OAC       57              0.0000000000
      2009       157  OAC       LPO11         -10.1437999757        1.9064587430        0.5221498123  OAC       57              0.0000000000
      2010       157  OAC       LPO12         -10.3547302060        1.4425619067        0.9380693379  OAC       57              0.0000000000
      2011       157  OAC       LPO21          -9.6481480417       -0.6230859234       -0.4086098824  OAC       57              0.0000000000
      2012       157  OAC       LPO22          -9.9317426417       -0.6264468778        0.1848913353  OAC       57              0.0000000000
      2013       158  OAC       C1              0.9008577898       -6.0876026437        1.8082931646  OAC       58              0.0000000000
      2014       158  OAC       DC1             0.8468633191       -6.0804988121        1.8129616682  OAC       58              0.0000000000
      2015       158  OAC       C2             -0.5598059470       -6.2775220621        1.4200161009  OAC       58              0.0000000000
      2016       158  OAC       DC2            -0.6666568850       -6.2653098799        1.4496414800  OAC       58              0.0000000000
      2017       158  OAC       H1             -1.2059342117       -5.5145181317        1.9044376822  OAC       58              0.0000000000
      2018       158  OAC       H2             -0.9523295542       -7.2995171876        1.6091514560  OAC       58              0.0000000000
      2019       158  OAC       H3             -0.5009765239       -6.1033715027        0.3243283336  OAC       58              0.0000000000
      2020       158  OAC       O1              1.1724840152       -7.0883783301        2.4799711841  OAC       58              0.0000000000
      2021       158  OAC       DO1             1.1079341294       -7.0745435493        2.4954100541  OAC       58              0.0000000000
      2022       158  OAC       O2              1.4002291133       -4.9280218531        1.6764113098  OAC       58              0.0000000000
      2023       158  OAC       DO2             1.3484306322       -4.9220500776        1.6857111866  OAC       58              0.0000000000
      2024       158  OAC       H               2.3323317642       -4.8486084185        1.9290754259  OAC       58              0.0000000000
      2025       158  OAC       LPO11           0.8917654266       -7.2959899221        2.5043535735  OAC       58              0.0000000000
      2026       158  OAC       LPO12           1.5058376822       -7.0746946502        2.5857449502  OAC       58              0.0000000000
      2027       158  OAC       LPO21           1.1590571426       -4.7073378639        1.5513726859  OAC       58              0.0000000000
      2028       158  OAC       LPO22           1.7355841234       -4.9300051716        1.7765765913  OAC       58              0.0000000000
      2029       159  OAC       C1             -5.8557486786        5.0746329824        6.8587683966  OAC       59              0.0000000000
      2030       159  OAC       DC1            -5.8787046157        5.0949223970        6.7981422223  OAC       59              0.0000000000
      2031       159  OAC       C2             -6.5106489284        4.1874669049        7.8261812847  OAC       59              0.0000000000
      2032       159  OAC       DC2            -6.4562717148        4.1597525537        7.7812528407  OAC       59              0.0000000000
      2033       159  OAC       H1             -6.3052158469        3.1358437663        7.5325709551  OAC       59              0.0000000000
      2034       159  OAC       H2             -7.6164765154        4.2683185079        7.7559718362  OAC       59              0.0000000000
      2035       159  OAC       H3             -6.1072616247        4.3171374017        8.8532086677  OAC       59              0.0000000000
      2036       159  OAC       O1             -6.5041673354        5.6262801085        5.9294899968  OAC       59              0.0000000000
      2037       159  OAC       DO1            -6.4927464101        5.6112695996        5.8459006613  OAC       59              0.0000000000
      2038       159  OAC       O2             -4.6228015937        4.7824871199        6.8776219167  OAC       59              0.0000000000
      2039       159  OAC       DO2            -4.6445428739        4.7558823116        6.8799127066  OAC       59              0.0000000000
      2040       159  OAC       H              -4.0789191098        5.2843379036        6.2520832410  OAC       59              0.0000000000
      2041       159  OAC       LPO11          -6.8411880036        5.5335347585        5.9472486346  OAC       59              0.0000000000
      2042       159  OAC       LPO12          -6.2903255532        5.8238208369        5.7351980701  OAC       59              0.0000000000
      2043       159  OAC       LPO21          -4.5643323491        4.5248110195        7.1071526873  OAC       59              0.0000000000
      2044       159  OAC       LPO22          -4.4483330792        4.9849687977        6.6516530967  OAC       59              0.0000000000
      2045       160  OAC       C1              5.9340455403       -2.0067393695       -6.2436404547  OAC       60              0.0000000000
      2046       160  OAC       DC1             5.9689662448       -1.9555075644       -6.2535534355  OAC       60              0.0000000000
      2047       160  OAC       C2              6.2945329154       -3.3607252459       -6.7553029519  OAC       60              0.0000000000
      2048       160  OAC       DC2             6.2865853179       -3.3336851370       -6.7557632809  OAC       60              0.0000000000
      2049       160  OAC       H1              6.4887681720       -4.0348835781       -5.8938482465  OAC       60              0.0000000000
      2050       160  OAC       H2              7.1830399232       -3.3401609135       -7.4219763392  OAC       60              0.0000000000
      2051       160  OAC       H3              5.4297160707       -3.7278796806       -7.3482704446  OAC       60              0.0000000000
      2052       160  OAC       O1              6.7182677869       -1.0795582564       -6.5658652172  OAC       60              0.0000000000
      2053       160  OAC       DO1             6.7907213379       -1.0437995890       -6.5587400098  OAC       60              0.0000000000
      2054       160  OAC       O2              4.9572958714       -2.0047213415       -5.4327122075  OAC       60              0.0000000000
      2055       160  OAC       DO2             4.9527263789       -2.0206177465       -5.4402700232  OAC       60              0.0000000000
      2056       160  OAC       H               4.7018864221       -1.1331735984       -5.0948786022  OAC       60              0.0000000000
      2057       160  OAC       LPO11           6.9791430092       -1.2061244656       -6.7618884635  OAC       60              0.0000000000
      2058       160  OAC       LPO12           6.6068325597       -0.7763100651       -6.4312445480  OAC       60              0.0000000000
      2059       160  OAC       LPO21           4.8396062314       -2.3310506123       -5.3862541015  OAC       60              0.0000000000
      2060       160  OAC       LPO22           4.8907820367       -1.6780114943       -5.3262388044  OAC       60              0.0000000000
      2061       161  OAC       C1              2.4875683897       -4.4727453105       -3.0518545014  OAC       61              0.0000000000
      2062       161  OAC       DC1             2.3993074503       -4.4787080809       -3.0039151694  OAC       61              0.0000000000
      2063       161  OAC       C2              3.3653190293       -3.6311095724       -3.9047933183  OAC       61              0.0000000000
      2064       161  OAC       DC2             3.2637140484       -3.6793845717       -3.8699655509  OAC       61              0.0000000000
      2065       161  OAC       H1              4.4343851372       -3.9083903841       -3.7842362388  OAC       61              0.0000000000
      2066       161  OAC       H2              3.2026396194       -2.5685251108       -3.6241321823  OAC       61              0.0000000000
      2067       161  OAC       H3              3.1146740451       -3.6795941435       -4.9860644870  OAC       61              0.0000000000
      2068       161  OAC       O1              1.8961740474       -3.9027860477       -2.0789024433  OAC       61              0.0000000000
      2069       161  OAC       DO1             1.8697377767       -3.8527275691       -2.0302767127  OAC       61              0.0000000000
      2070       161  OAC       O2              2.1563553848       -5.5957992579       -3.5818753169  OAC       61              0.0000000000
      2071       161  OAC       DO2             2.1284635345       -5.5990099812       -3.6134008469  OAC       61              0.0000000000
      2072       161  OAC       H               1.5644492194       -6.1448881152       -3.0460493012  OAC       61              0.0000000000
      2073       161  OAC       LPO11           1.9803560265       -3.5631767022       -2.0700206163  OAC       61              0.0000000000
      2074       161  OAC       LPO12           1.7007923471       -4.1352261043       -1.9048403530  OAC       61              0.0000000000
      2075       161  OAC       LPO21           2.3004900169       -5.6254303112       -3.8994398120  OAC       61              0.0000000000
      2076       161  OAC       LPO22           1.9505231047       -5.7753682847       -3.3630419624  OAC       61              0.0000000000
      2077       162  OAC       C1             -7.3010564419        2.9656460550        4.4228923376  OAC       62              0.0000000000
      2078       162  OAC       DC1            -7.2745743143        2.9182750565        4.3344244817  OAC       62              0.0000000000
      2079       162  OAC       C2             -8.5709142713        3.7906745559        4.6484315255  OAC       62              0.0000000000
      2080       162  OAC       DC2            -8.5366834382        3.7077923833        4.5989218409  OAC       62              0.0000000000
      2081       162  OAC       H1             -8.4213882440        4.8303655995        4.2864847038  OAC       62              0.0000000000
      2082       162  OAC       H2             -8.8503359013        3.8200181955        5.7233191966  OAC       62              0.0000000000
      2083       162  OAC       H3             -9.4292158868        3.3598092551        4.0898669103  OAC       62              0.0000000000
      2084       162  OAC       O1             -6.6718645269        2.4382344737        5.3736705975  OAC       62              0.0000000000
      2085       162  OAC       DO1            -6.6812697470        2.4210234452        5.3446373955  OAC       62              0.0000000000
      2086       162  OAC       O2             -7.0824842478        2.6003188548        3.2174862228  OAC       62              0.0000000000
      2087       162  OAC       DO2            -7.0638803629        2.5482808717        3.1536280194  OAC       62              0.0000000000
      2088       162  OAC       H              -6.2706323741        2.0806528987        3.1184668792  OAC       62              0.0000000000
      2089       162  OAC       LPO11          -6.8306256955        2.5106575407        5.6770676817  OAC       62              0.0000000000
      2090       162  OAC       LPO12          -6.3931876839        2.2652937206        5.2514793004  OAC       62              0.0000000000
      2091       162  OAC       LPO21          -7.3377770994        2.7175378464        3.0087153726  OAC       62              0.0000000000
      2092       162  OAC       LPO22          -6.7862571783        2.4146813561        3.2005085202  OAC       62              0.0000000000
      2093       163  OAC       C1              9.1627849938       -3.9759816237        3.5725267540  OAC       63              0.0000000000
      2094       163  OAC       DC1             9.1355761783       -3.9508707310        3.5946004291  OAC       63              0.0000000000
      2095       163  OAC       C2              9.2685871223       -5.4691094729        3.7127152816  OAC       63              0.0000000000
      2096       163  OAC       DC2             9.2435607157       -5.4440011296        3.7158697078  OAC       63              0.0000000000
      2097       163  OAC       H1              9.2551395803       -5.9603680893        2.7163192074  OAC       63              0.0000000000
      2098       163  OAC       H2              8.3953461637       -5.9061980779        4.2425499548  OAC       63              0.0000000000
      2099       163  OAC       H3             10.2254860145       -5.6856627814        4.2340310927  OAC       63              0.0000000000
      2100       163  OAC       O1              8.0699682618       -3.5729867288        4.0521330212  OAC       63              0.0000000000
      2101       163  OAC       DO1             8.0313298531       -3.5425038249        4.0592669554  OAC       63              0.0000000000
      2102       163  OAC       O2             10.0588067022       -3.2751774758        2.9792990773  OAC       63              0.0000000000
      2103       163  OAC       DO2            10.0545910446       -3.2730252751        2.9671115172  OAC       63              0.0000000000
      2104       163  OAC       H               9.7948447115       -2.3526852608        2.8440467916  OAC       63              0.0000000000
      2105       163  OAC       LPO11           7.8864663041       -3.8440046528        4.1761342970  OAC       63              0.0000000000
      2106       163  OAC       LPO12           8.0457623231       -3.2253729590        4.0192888497  OAC       63              0.0000000000
      2107       163  OAC       LPO21          10.3158639333       -3.4826314855        2.8636080500  OAC       63              0.0000000000
      2108       163  OAC       LPO22           9.9689610997       -2.9369424797        2.9842845658  OAC       63              0.0000000000
      2109       164  OAC       C1              4.0750494470        3.0901440256      -10.2404423416  OAC       64              0.0000000000
      2110       164  OAC       DC1             4.0836190039        3.1313674073      -10.2437081755  OAC       64              0.0000000000
      2111       164  OAC       C2              5.5000566588        3.3170939438       -9.6449586919  OAC       64              0.0000000000
      2112       164  OAC       DC2             5.5147154395        3.3711127329       -9.6360648192  OAC       64              0.0000000000
      2113       164  OAC       H1              5.5389413906        2.9871190377       -8.5848051464  OAC       64              0.0000000000
      2114       164  OAC       H2              5.8276701241        4.3786876015       -9.6480122262  OAC       64              0.0000000000
      2115       164  OAC       H3              6.2185365791        2.6969492756      -10.2224776914  OAC       64              0.0000000000
      2116       164  OAC       O1              3.6147894261        4.1685291489      -10.7131259389  OAC       64              0.0000000000
      2117       164  OAC       DO1             3.6337025471        4.2105507118      -10.7005344677  OAC       64              0.0000000000
      2118       164  OAC       O2              3.5648696013        1.9351724855      -10.2909065990  OAC       64              0.0000000000
      2119       164  OAC       DO2             3.5868944217        1.9612145504      -10.2817097380  OAC       64              0.0000000000
      2120       164  OAC       H               2.5966490455        1.9113164683      -10.3215798094  OAC       64              0.0000000000
      2121       164  OAC       LPO11           3.8469608829        4.4268616228      -10.6699895551  OAC       64              0.0000000000
      2122       164  OAC       LPO12           3.2954534679        4.1144223243      -10.8457796133  OAC       64              0.0000000000
      2123       164  OAC       LPO21           3.7870782848        1.7001996718      -10.1570743241  OAC       64              0.0000000000
      2124       164  OAC       LPO22           3.2460003804        1.9513201716      -10.4343000164  OAC       64              0.0000000000
      2125       165  OAC       C1              8.7860651034       -2.3030888399       10.0567366476  OAC       65              0.0000000000
      2126       165  OAC       DC1             8.8114612936       -2.2914989647       10.0760904771  OAC       65              0.0000000000
      2127       165  OAC       C2              8.1835197261       -3.6283004268        9.5374176273  OAC       65              0.0000000000
      2128       165  OAC       DC2             8.2093266197       -3.6154082463        9.5691823179  OAC       65              0.0000000000
      2129       165  OAC       H1              7.3920635888       -3.9884578983       10.2289411476  OAC       65              0.0000000000
      2130       165  OAC       H2              8.9784094324       -4.4013464474        9.4676236082  OAC       65              0.0000000000
      2131       165  OAC       H3              7.7275996396       -3.4889868904        8.5338990098  OAC       65              0.0000000000
      2132       165  OAC       O1              9.9780681699       -2.3421801275       10.5229779134  OAC       65              0.0000000000
      2133       165  OAC       DO1            10.0019589931       -2.3458887630       10.5420265202  OAC       65              0.0000000000
      2134       165  OAC       O2              8.0047578348       -1.2983647541       10.0168621614  OAC       65              0.0000000000
      2135       165  OAC       DO2             8.0077940624       -1.2886577598       10.0229659238  OAC       65              0.0000000000
      2136       165  OAC       H               8.3986654810       -0.4313732976       10.1960926878  OAC       65              0.0000000000
      2137       165  OAC       LPO11          10.1033697798       -2.6684335851       10.5040520594  OAC       65              0.0000000000
      2138       165  OAC       LPO12          10.0756276536       -2.0232353148       10.6290738774  OAC       65              0.0000000000
      2139       165  OAC       LPO21           7.6942985576       -1.3932634216        9.8860597146  OAC       65              0.0000000000
      2140       165  OAC       LPO22           8.1683201175       -1.0145635197       10.1401676318  OAC       65              0.0000000000
      2141       166  OAC       C1             -4.8337535224        1.8571504469       -6.5555740332  OAC       66              0.0000000000
      2142       166  OAC       DC1            -4.8973801555        1.7810810416       -6.5475685624  OAC       66              0.0000000000
      2143       166  OAC       C2             -6.0157231557        2.7334157459       -6.3644594199  OAC       66              0.0000000000
      2144       166  OAC       DC2            -6.0655264720        2.7074838732       -6.3076122392  OAC       66              0.0000000000
      2145       166  OAC       H1             -5.9956511466        3.1895741638       -5.3516229996  OAC       66              0.0000000000
      2146       166  OAC       H2             -6.9784021441        2.2068949146       -6.5386603983  OAC       66              0.0000000000
      2147       166  OAC       H3             -5.9452249189        3.6032459467       -7.0520249952  OAC       66              0.0000000000
      2148       166  OAC       O1             -5.2223951306        0.6750456437       -6.6814298830  OAC       66              0.0000000000
      2149       166  OAC       DO1            -5.2566209111        0.6207143762       -6.6687007970  OAC       66              0.0000000000
      2150       166  OAC       O2             -3.8071887924        2.3741335085       -6.0970522393  OAC       66              0.0000000000
      2151       166  OAC       DO2            -3.8908241290        2.3632922955       -6.0794508711  OAC       66              0.0000000000
      2152       166  OAC       H              -2.9820651760        1.9058240145       -6.2940756787  OAC       66              0.0000000000
      2153       166  OAC       LPO11          -5.5714521838        0.6608726342       -6.6600219545  OAC       66              0.0000000000
      2154       166  OAC       LPO12          -4.9477333630        0.4629355621       -6.7269296268  OAC       66              0.0000000000
      2155       166  OAC       LPO21          -3.8820334244        2.6870063753       -5.9591796521  OAC       66              0.0000000000
      2156       166  OAC       LPO22          -3.5337351292        2.1612811295       -6.1462148148  OAC       66              0.0000000000
      2157       167  OAC       C1              9.9568722466       -9.1795541542        4.5053648360  OAC       67              0.0000000000
      2158       167  OAC       DC1             9.9626211184       -9.1910642003        4.5279214806  OAC       67              0.0000000000
      2159       167  OAC       C2              9.3705976695       -9.4850028324        3.1389559273  OAC       67              0.0000000000
      2160       167  OAC       DC2             9.3811730967       -9.4803188633        3.1904918545  OAC       67              0.0000000000
      2161       167  OAC       H1             10.0817483586      -10.1309180041        2.5809422260  OAC       67              0.0000000000
      2162       167  OAC       H2              9.2128842376       -8.5470163056        2.5648228842  OAC       67              0.0000000000
      2163       167  OAC       H3              8.4053039697      -10.0290089402        3.2201127401  OAC       67              0.0000000000
      2164       167  OAC       O1             10.5938932039       -8.0938151124        4.6251751378  OAC       67              0.0000000000
      2165       167  OAC       DO1            10.6025746165       -8.0979281448        4.6165416093  OAC       67              0.0000000000
      2166       167  OAC       O2              9.8081142963      -10.1227311624        5.3620292188  OAC       67              0.0000000000
      2167       167  OAC       DO2             9.8124950772      -10.1448593366        5.3688772903  OAC       67              0.0000000000
      2168       167  OAC       H              10.0663578769       -9.8590769869        6.2579967009  OAC       67              0.0000000000
      2169       167  OAC       LPO11          10.5958450665       -7.9219018525        4.3203111988  OAC       67              0.0000000000
      2170       167  OAC       LPO12          10.7125509755       -8.0601612128        4.9527232233  OAC       67              0.0000000000
      2171       167  OAC       LPO21           9.6380034377      -10.3914443914        5.2158940201  OAC       67              0.0000000000
      2172       167  OAC       LPO22           9.9504619459      -10.0300463096        5.6680466443  OAC       67              0.0000000000
      2173       168  OAC       C1             -8.1472484998      -10.1698325704        0.3283976460  OAC       68              0.0000000000
      2174       168  OAC       DC1            -8.0996861176      -10.1872864243        0.2739089705  OAC       68              0.0000000000
      2175       168  OAC       C2             -9.6645741809       -9.7957527178        0.2854164376  OAC       68              0.0000000000
      2176       168  OAC       DC2            -9.6160129098       -9.8124624607        0.2655818471  OAC       68              0.0000000000
      2177       168  OAC       H1             -9.8933523732       -8.7635783617       -0.0560475264  OAC       68              0.0000000000
      2178       168  OAC       H2            -10.1096797757       -9.8118100693        1.3032298642  OAC       68              0.0000000000
      2179       168  OAC       H3            -10.2127286599      -10.4861218848       -0.3907773824  OAC       68              0.0000000000
      2180       168  OAC       O1             -7.7121303417      -10.4512159338        1.4791748204  OAC       68              0.0000000000
      2181       168  OAC       DO1            -7.6981909895      -10.4492363194        1.4576269237  OAC       68              0.0000000000
      2182       168  OAC       O2             -7.4420872251      -10.2726610790       -0.7469123847  OAC       68              0.0000000000
      2183       168  OAC       DO2            -7.4126658414      -10.2675978084       -0.7983722006  OAC       68              0.0000000000
      2184       168  OAC       H              -6.4867719514      -10.2557872601       -0.5855153497  OAC       68              0.0000000000
      2185       168  OAC       LPO11          -7.9699377486      -10.4247488355        1.7144083929  OAC       68              0.0000000000
      2186       168  OAC       LPO12          -7.3717804897      -10.5310617990        1.4622450807  OAC       68              0.0000000000
      2187       168  OAC       LPO21          -7.6407743722      -10.2058672168       -1.0272015167  OAC       68              0.0000000000
      2188       168  OAC       LPO22          -7.1125282564      -10.3585390214       -0.6661914756  OAC       68              0.0000000000
      2189       169  OAC       C1             -1.3516411903        3.4561811807       -2.6101044418  OAC       69              0.0000000000
      2190       169  OAC       DC1            -1.4159315698        3.5610881232       -2.5624713488  OAC       69              0.0000000000
      2191       169  OAC       C2             -2.2463729747        2.8560300193       -3.6655383562  OAC       69              0.0000000000
      2192       169  OAC       DC2            -2.3219866082        2.8854587744       -3.5825365917  OAC       69              0.0000000000
      2193       169  OAC       H1             -3.1790725727        2.5441821279       -3.1486792323  OAC       69              0.0000000000
      2194       169  OAC       H2             -1.7552239084        1.9436338475       -4.0663211166  OAC       69              0.0000000000
      2195       169  OAC       H3             -2.4025535355        3.5629140094       -4.5082979049  OAC       69              0.0000000000
      2196       169  OAC       O1             -0.6844810932        2.6903371636       -1.9098651940  OAC       69              0.0000000000
      2197       169  OAC       DO1            -0.7418778938        2.6853822889       -1.9258555357  OAC       69              0.0000000000
      2198       169  OAC       O2             -1.9067765316        4.5354338904       -2.2609278826  OAC       69              0.0000000000
      2199       169  OAC       DO2            -2.0465638547        4.5718858269       -2.2634617127  OAC       69              0.0000000000
      2200       169  OAC       H              -1.4472415702        4.9765118070       -1.5306958018  OAC       69              0.0000000000
      2201       169  OAC       LPO11          -0.7459617501        2.3586486183       -2.0031541955  OAC       69              0.0000000000
      2202       169  OAC       LPO12          -0.4935275200        2.8734016246       -1.6806837463  OAC       69              0.0000000000
      2203       169  OAC       LPO21          -2.2031917008        4.5813914995       -2.4412773923  OAC       69              0.0000000000
      2204       169  OAC       LPO22          -1.7156020769        4.6940774261       -2.0143826403  OAC       69              0.0000000000
      2205       170  OAC       C1              3.7582195857       -8.0706213228        1.4692982523  OAC       70              0.0000000000
      2206       170  OAC       DC1             3.7664480779       -8.0400639569        1.5756357200  OAC       70              0.0000000000
      2207       170  OAC       C2              2.9010774011       -9.3710335364        1.2649975015  OAC       70              0.0000000000
      2208       170  OAC       DC2             2.8541337225       -9.3671032564        1.3154557848  OAC       70              0.0000000000
      2209       170  OAC       H1              3.3995974853      -10.3062487852        1.5984209040  OAC       70              0.0000000000
      2210       170  OAC       H2              2.5482410907       -9.4715445704        0.2163197290  OAC       70              0.0000000000
      2211       170  OAC       H3              1.9845311711       -9.2475390648        1.8806379190  OAC       70              0.0000000000
      2212       170  OAC       O1              3.7495336711       -7.3135490144        0.5038933807  OAC       70              0.0000000000
      2213       170  OAC       DO1             3.6888920336       -7.3760810150        0.5170604782  OAC       70              0.0000000000
      2214       170  OAC       O2              3.8889282107       -7.8395015729        2.7042320799  OAC       70              0.0000000000
      2215       170  OAC       DO2             3.7929380334       -7.9673534690        2.8218459467  OAC       70              0.0000000000
      2216       170  OAC       H               4.3651023390       -7.0163199529        2.8902192352  OAC       70              0.0000000000
      2217       170  OAC       LPO11           3.5514079299       -7.4476174441        0.2484098258  OAC       70              0.0000000000
      2218       170  OAC       LPO12           3.9459644410       -7.0317453320        0.5709876218  OAC       70              0.0000000000
      2219       170  OAC       LPO21           3.7229427899       -8.0851775342        2.8902217626  OAC       70              0.0000000000
      2220       170  OAC       LPO22           4.0796876834       -7.5500199893        2.7523073994  OAC       70              0.0000000000
      2221       171  OAC       C1              4.5996342713       -2.8257692905       10.0644309878  OAC       71              0.0000000000
      2222       171  OAC       DC1             4.5706553279       -2.8653027421       10.0582637641  OAC       71              0.0000000000
      2223       171  OAC       C2              3.3376623094       -2.1176500078        9.4456069594  OAC       71              0.0000000000
      2224       171  OAC       DC2             3.2873873005       -2.1184368215        9.4498883283  OAC       71              0.0000000000
      2225       171  OAC       H1              3.3143247964       -2.2419861745        8.3418330340  OAC       71              0.0000000000
      2226       171  OAC       H2              3.3667414777       -1.0270630288        9.6555961154  OAC       71              0.0000000000
      2227       171  OAC       H3              2.4196629652       -2.5483569432        9.8995780388  OAC       71              0.0000000000
      2228       171  OAC       O1              5.1971801256       -2.1171300393       10.9127572172  OAC       71              0.0000000000
      2229       171  OAC       DO1             5.1616073329       -2.1239558157       10.9042575404  OAC       71              0.0000000000
      2230       171  OAC       O2              4.6416683781       -4.0999356928        9.9152195909  OAC       71              0.0000000000
      2231       171  OAC       DO2             4.6055929519       -4.1304447459        9.9192944505  OAC       71              0.0000000000
      2232       171  OAC       H               5.5298288381       -4.4871896226        9.9281188709  OAC       71              0.0000000000
      2233       171  OAC       LPO11           5.0341569621       -1.8094090737       10.9478464678  OAC       71              0.0000000000
      2234       171  OAC       LPO12           5.4740565034       -2.2898306445       11.0393035422  OAC       71              0.0000000000
      2235       171  OAC       LPO21           4.3590025503       -4.2093563228        9.7402134324  OAC       71              0.0000000000
      2236       171  OAC       LPO22           4.9321745435       -4.2281767006       10.0623943570  OAC       71              0.0000000000
      2237       172  OAC       C1              1.5339486461        2.4295844073        2.3746579316  OAC       72              0.0000000000
      2238       172  OAC       DC1             1.5210307855        2.4191740317        2.3005460783  OAC       72              0.0000000000
      2239       172  OAC       C2              0.1210655566        1.6982924587        2.4561151671  OAC       72              0.0000000000
      2240       172  OAC       DC2             0.0758967530        1.6658176405        2.3817619423  OAC       72              0.0000000000
      2241       172  OAC       H1              0.1750176674        0.8906477991        3.2171146898  OAC       72              0.0000000000
      2242       172  OAC       H2             -0.2706738044        1.2988386448        1.4962725109  OAC       72              0.0000000000
      2243       172  OAC       H3             -0.6609332363        2.4300566884        2.7516147447  OAC       72              0.0000000000
      2244       172  OAC       O1              1.6509273605        2.6405633744        1.1545843665  OAC       72              0.0000000000
      2245       172  OAC       DO1             1.6305365968        2.6080414028        1.0989118438  OAC       72              0.0000000000
      2246       172  OAC       O2              2.4656089416        2.7034720734        3.1857454594  OAC       72              0.0000000000
      2247       172  OAC       DO2             2.4551711808        2.6955750092        3.1397408408  OAC       72              0.0000000000
      2248       172  OAC       H               3.1516834111        3.2937719285        2.8396112294  OAC       72              0.0000000000
      2249       172  OAC       LPO11           1.3704258963        2.5184651840        0.9845521330  OAC       72              0.0000000000
      2250       172  OAC       LPO12           1.9539475036        2.8032755143        1.0897495575  OAC       72              0.0000000000
      2251       172  OAC       LPO21           2.3846437363        2.5857231014        3.5052447789  OAC       72              0.0000000000
      2252       172  OAC       LPO22           2.7228648885        2.8730466517        3.0197218461  OAC       72              0.0000000000
      2253       173  OAC       C1              8.4101543014        0.2764315250       -2.0128339070  OAC       73              0.0000000000
      2254       173  OAC       DC1             8.3862259899        0.3137587930       -2.0547709765  OAC       73              0.0000000000
      2255       173  OAC       C2              9.1780778115        1.4326321987       -1.6424775296  OAC       73              0.0000000000
      2256       173  OAC       DC2             9.1661713305        1.4779254169       -1.6546431497  OAC       73              0.0000000000
      2257       173  OAC       H1              8.6302877577        1.7905908351       -0.7446397534  OAC       73              0.0000000000
      2258       173  OAC       H2              9.0880190534        2.2124491045       -2.4286683547  OAC       73              0.0000000000
      2259       173  OAC       H3             10.2422466257        1.1924800300       -1.4322569981  OAC       73              0.0000000000
      2260       173  OAC       O1              7.7284743076        0.4074494330       -3.0461098298  OAC       73              0.0000000000
      2261       173  OAC       DO1             7.7011757737        0.4177009399       -3.0671376274  OAC       73              0.0000000000
      2262       173  OAC       O2              8.3568405078       -0.5327510509       -1.0732219815  OAC       73              0.0000000000
      2263       173  OAC       DO2             8.3514834126       -0.4765383805       -1.0885223704  OAC       73              0.0000000000
      2264       173  OAC       H               7.8181388830       -1.3123118394       -1.2758214313  OAC       73              0.0000000000
      2265       173  OAC       LPO11           7.7730054934        0.7281480651       -3.1790359781  OAC       73              0.0000000000
      2266       173  OAC       LPO12           7.5528340509        0.1119497746       -3.1119160007  OAC       73              0.0000000000
      2267       173  OAC       LPO21           8.5342502199       -0.4087003849       -0.7981997527  OAC       73              0.0000000000
      2268       173  OAC       LPO22           8.1691468457       -0.8128887745       -1.1669980180  OAC       73              0.0000000000
      2269       174  OAC       C1              9.2298266719       -2.0432210516       -3.5888176758  OAC       74              0.0000000000
      2270       174  OAC       DC1             9.3259613889       -1.9314039759       -3.6661453082  OAC       74              0.0000000000
      2271       174  OAC       C2              7.9055455467       -2.4397867613       -4.2291504143  OAC       74              0.0000000000
      2272       174  OAC       DC2             7.9591138994       -2.4247648881       -4.2507694246  OAC       74              0.0000000000
      2273       174  OAC       H1              7.1467480672       -1.6347321167       -4.1270014698  OAC       74              0.0000000000
      2274       174  OAC       H2              7.3943779092       -3.3430095276       -3.8326440679  OAC       74              0.0000000000
      2275       174  OAC       H3              8.1390171640       -2.6705392132       -5.2905482245  OAC       74              0.0000000000
      2276       174  OAC       O1              9.6564327468       -2.6513713880       -2.6086396170  OAC       74              0.0000000000
      2277       174  OAC       DO1             9.6312445595       -2.6254101781       -2.6624646896  OAC       74              0.0000000000
      2278       174  OAC       O2              9.8791641495       -1.1474940006       -4.2068762610  OAC       74              0.0000000000
      2279       174  OAC       DO2             9.8685769103       -1.0675378064       -4.3481260911  OAC       74              0.0000000000
      2280       174  OAC       H              10.5307703100       -0.7163889792       -3.6337106021  OAC       74              0.0000000000
      2281       174  OAC       LPO11           9.4333450043       -2.9057973616       -2.5192009054  OAC       74              0.0000000000
      2282       174  OAC       LPO12           9.9625660360       -2.5153313919       -2.5072713345  OAC       74              0.0000000000
      2283       174  OAC       LPO21           9.7037552596       -1.0484749813       -4.4931051120  OAC       74              0.0000000000
      2284       174  OAC       LPO22          10.1772470294       -1.0772906740       -4.0374121360  OAC       74              0.0000000000
      2285       175  OAC       C1              9.1162806148       -7.1564772233       -0.9098329067  OAC       75              0.0000000000
      2286       175  OAC       DC1             9.1087143218       -7.1582255293       -0.9485927047  OAC       75              0.0000000000
      2287       175  OAC       C2              9.1188736417       -6.9781304244        0.5930760861  OAC       75              0.0000000000
      2288       175  OAC       DC2             9.1358582361       -6.9835230445        0.5593619214  OAC       75              0.0000000000
      2289       175  OAC       H1             10.0508230541       -7.3739334339        1.0503848109  OAC       75              0.0000000000
      2290       175  OAC       H2              8.2295052956       -7.4219069177        1.0894704566  OAC       75              0.0000000000
      2291       175  OAC       H3              9.0429485726       -5.8901036380        0.8046277269  OAC       75              0.0000000000
      2292       175  OAC       O1              8.1521597373       -7.7918508315       -1.4377206840  OAC       75              0.0000000000
      2293       175  OAC       DO1             8.1358875070       -7.7936428548       -1.4609750659  OAC       75              0.0000000000
      2294       175  OAC       O2             10.0972858344       -6.6361593235       -1.5590448617  OAC       75              0.0000000000
      2295       175  OAC       DO2            10.1119251683       -6.6335915699       -1.5666623715  OAC       75              0.0000000000
      2296       175  OAC       H               9.9562144957       -6.6732018587       -2.5170050536  OAC       75              0.0000000000
      2297       175  OAC       LPO11           7.9277523457       -7.8961676992       -1.1902144948  OAC       75              0.0000000000
      2298       175  OAC       LPO12           8.1947591468       -7.8073488087       -1.7847727017  OAC       75              0.0000000000
      2299       175  OAC       LPO21          10.3163906564       -6.4768288232       -1.3374441653  OAC       75              0.0000000000
      2300       175  OAC       LPO22          10.0607711872       -6.6986453480       -1.9014805159  OAC       75              0.0000000000
      2301       176  OAC       C1             -6.1864339479       -0.9745755068        7.5850993434  OAC       76              0.0000000000
      2302       176  OAC       DC1            -6.1984414882       -0.9899091940        7.5883722328  OAC       76              0.0000000000
      2303       176  OAC       C2             -6.7379157987       -0.3377557197        6.3276667637  OAC       76              0.0000000000
      2304       176  OAC       DC2            -6.7565631065       -0.4036963795        6.3152463750  OAC       76              0.0000000000
      2305       176  OAC       H1             -5.9591094490        0.2660913335        5.8146848869  OAC       76              0.0000000000
      2306       176  OAC       H2             -7.5711370103        0.3480271039        6.5917980426  OAC       76              0.0000000000
      2307       176  OAC       H3             -7.0784027324       -1.0794131785        5.5737875532  OAC       76              0.0000000000
      2308       176  OAC       O1             -6.8593567652       -1.0421874956        8.6524694292  OAC       76              0.0000000000
      2309       176  OAC       DO1            -6.8673608913       -1.1011394893        8.6400612926  OAC       76              0.0000000000
      2310       176  OAC       O2             -5.1514829731       -1.6660481426        7.3548417566  OAC       76              0.0000000000
      2311       176  OAC       DO2            -5.1744574350       -1.6894325673        7.3745421392  OAC       76              0.0000000000
      2312       176  OAC       H              -4.7820301516       -2.0865707130        8.1458072312  OAC       76              0.0000000000
      2313       176  OAC       LPO11          -7.1739892055       -0.8963837560        8.6050595455  OAC       76              0.0000000000
      2314       176  OAC       LPO12          -6.6722232908       -1.2008017068        8.9021143666  OAC       76              0.0000000000
      2315       176  OAC       LPO21          -5.0736415623       -1.6551049498        7.0137831673  OAC       76              0.0000000000
      2316       176  OAC       LPO22          -5.0335748334       -1.8077757502        7.6523496654  OAC       76              0.0000000000
      2317       177  OAC       C1              4.1575836866        7.7344762023        8.2772596661  OAC       77              0.0000000000
      2318       177  OAC       DC1             4.1651770171        7.7271126398        8.2730823434  OAC       77              0.0000000000
      2319       177  OAC       C2              4.3644846724        7.1130151140        9.6874096536  OAC       77              0.0000000000
      2320       177  OAC       DC2             4.3518610877        7.0786357519        9.6771302662  OAC       77              0.0000000000
      2321       177  OAC       H1              4.7078874193        6.0598783083        9.6019788452  OAC       77              0.0000000000
      2322       177  OAC       H2              3.4070735153        7.1193685751       10.2510092561  OAC       77              0.0000000000
      2323       177  OAC       H3              5.1345804196        7.6484696802       10.2828606998  OAC       77              0.0000000000
      2324       177  OAC       O1              2.9961173620        8.1272178809        8.0376379313  OAC       77              0.0000000000
      2325       177  OAC       DO1             2.9863030300        8.1050922420        8.0405334094  OAC       77              0.0000000000
      2326       177  OAC       O2              5.0907577763        7.6118579170        7.4367752574  OAC       77              0.0000000000
      2327       177  OAC       DO2             5.0853448403        7.5990389701        7.4194160964  OAC       77              0.0000000000
      2328       177  OAC       H               4.9388757103        8.0272702272        6.5746120183  OAC       77              0.0000000000
      2329       177  OAC       LPO11           2.7902518544        8.0680657130        8.3144418580  OAC       77              0.0000000000
      2330       177  OAC       LPO12           2.9793952539        8.2616364875        7.7149120270  OAC       77              0.0000000000
      2331       177  OAC       LPO21           5.3571714719        7.4347057124        7.5786936819  OAC       77              0.0000000000
      2332       177  OAC       LPO22           5.0013977665        7.7657454172        7.1353894151  OAC       77              0.0000000000
      2333       178  OAC       C1             -5.0405685827        8.3917570816        9.3708650084  OAC       78              0.0000000000
      2334       178  OAC       DC1            -5.0589242069        8.4245097560        9.3650933959  OAC       78              0.0000000000
      2335       178  OAC       C2             -4.5411295314        7.1078358312        8.7050976143  OAC       78              0.0000000000
      2336       178  OAC       DC2            -4.5559415354        7.1254158452        8.7031394105  OAC       78              0.0000000000
      2337       178  OAC       H1             -4.7820522663        7.1408773262        7.6210378852  OAC       78              0.0000000000
      2338       178  OAC       H2             -4.9980007501        6.1958217579        9.1453475671  OAC       78              0.0000000000
      2339       178  OAC       H3             -3.4404860405        6.9778985840        8.7826941260  OAC       78              0.0000000000
      2340       178  OAC       O1             -5.6381025802        8.3063735996       10.4935321475  OAC       78              0.0000000000
      2341       178  OAC       DO1            -5.6582284937        8.3289705544       10.4926725868  OAC       78              0.0000000000
      2342       178  OAC       O2             -4.9738019796        9.4631305600        8.6524845976  OAC       78              0.0000000000
      2343       178  OAC       DO2            -4.9895930027        9.4817911017        8.6310981175  OAC       78              0.0000000000
      2344       178  OAC       H              -5.3162574938       10.2542282475        9.0950336577  OAC       78              0.0000000000
      2345       178  OAC       LPO11          -5.6562124093        7.9716985031       10.5943518572  OAC       78              0.0000000000
      2346       178  OAC       LPO12          -5.7322264437        8.6250112764       10.6035809058  OAC       78              0.0000000000
      2347       178  OAC       LPO21          -4.8399870768        9.3881639272        8.3378839368  OAC       78              0.0000000000
      2348       178  OAC       LPO22          -5.0952413782        9.7366813134        8.8339300655  OAC       78              0.0000000000
      2349       179  OAC       C1              7.7817859667       -6.2025184294        6.6439994549  OAC       79              0.0000000000
      2350       179  OAC       DC1             7.7450583123       -6.2442304477        6.6559657970  OAC       79              0.0000000000
      2351       179  OAC       C2              9.1113127385       -5.5024794064        6.7407503526  OAC       79              0.0000000000
      2352       179  OAC       DC2             9.0530896772       -5.5317843565        6.7672419335  OAC       79              0.0000000000
      2353       179  OAC       H1              9.0546900198       -4.5060245098        6.2527006550  OAC       79              0.0000000000
      2354       179  OAC       H2              9.9316980185       -6.0714688711        6.2533696164  OAC       79              0.0000000000
      2355       179  OAC       H3              9.3898483579       -5.3934160958        7.8107242328  OAC       79              0.0000000000
      2356       179  OAC       O1              7.7275755564       -7.3338750455        6.0920354929  OAC       79              0.0000000000
      2357       179  OAC       DO1             7.6828043264       -7.3586029000        6.0794929265  OAC       79              0.0000000000
      2358       179  OAC       O2              6.7890832503       -5.6803862117        7.2671843425  OAC       79              0.0000000000
      2359       179  OAC       DO2             6.7725462651       -5.7045575275        7.2890283056  OAC       79              0.0000000000
      2360       179  OAC       H               5.9537014979       -6.1401559859        7.0948182127  OAC       79              0.0000000000
      2361       179  OAC       LPO11           8.0464025549       -7.4298270697        5.9841348253  OAC       79              0.0000000000
      2362       179  OAC       LPO12           7.3984478785       -7.4528954177        6.0950558657  OAC       79              0.0000000000
      2363       179  OAC       LPO21           6.8912512641       -5.3893224885        7.4325433640  OAC       79              0.0000000000
      2364       179  OAC       LPO22           6.5016917894       -5.8740278895        7.2181022799  OAC       79              0.0000000000
      2365       180  OAC       C1              0.8357451494        2.7813211431        5.4184903015  OAC       80              0.0000000000
      2366       180  OAC       DC1             0.7726880301        2.7384926282        5.3709596330  OAC       80              0.0000000000
      2367       180  OAC       C2              1.8245289396        3.4917008503        6.1250607590  OAC       80              0.0000000000
      2368       180  OAC       DC2             1.7637628393        3.4165067678        6.0676263344  OAC       80              0.0000000000
      2369       180  OAC       H1              1.7471276774        3.2605112414        7.2089802257  OAC       80              0.0000000000
      2370       180  OAC       H2              1.6775142763        4.5806890289        5.9613157250  OAC       80              0.0000000000
      2371       180  OAC       H3              2.8615234168        3.2465486426        5.8106345347  OAC       80              0.0000000000
      2372       180  OAC       O1              0.1277607070        3.4540971786        4.6170792547  OAC       80              0.0000000000
      2373       180  OAC       DO1             0.1145629863        3.4609545196        4.5590830230  OAC       80              0.0000000000
      2374       180  OAC       O2              0.7811949729        1.5155386889        5.5509280551  OAC       80              0.0000000000
      2375       180  OAC       DO2             0.7692828936        1.4744993566        5.5494569351  OAC       80              0.0000000000
      2376       180  OAC       H               0.1747888604        1.0757154887        4.9362832956  OAC       80              0.0000000000
      2377       180  OAC       LPO11           0.2272575393        3.7896188632        4.6221368798  OAC       80              0.0000000000
      2378       180  OAC       LPO12          -0.1059011803        3.2460684565        4.4601519684  OAC       80              0.0000000000
      2379       180  OAC       LPO21           1.0316084270        1.4072129566        5.7701508590  OAC       80              0.0000000000
      2380       180  OAC       LPO22           0.5205291553        1.3859685484        5.3565960964  OAC       80              0.0000000000
      2381       181  OAC       C1             -7.9206318005       -7.7168253600       -2.2764934157  OAC       81              0.0000000000
      2382       181  OAC       DC1            -7.9155021543       -7.6936680046       -2.3566954434  OAC       81              0.0000000000
      2383       181  OAC       C2             -6.6056112669       -8.4760038911       -2.8015211541  OAC       81              0.0000000000
      2384       181  OAC       DC2            -6.7025857945       -8.5016120896       -2.9329113462  OAC       81              0.0000000000
      2385       181  OAC       H1             -6.2050700272       -8.1177736505       -3.7739196376  OAC       81              0.0000000000
      2386       181  OAC       H2             -6.6490449005       -9.5832890898       -2.8812331920  OAC       81              0.0000000000
      2387       181  OAC       H3             -5.8529315327       -8.2401657671       -2.0191052811  OAC       81              0.0000000000
      2388       181  OAC       O1             -8.9876712398       -8.3340171633       -2.1562285893  OAC       81              0.0000000000
      2389       181  OAC       DO1            -8.9607731165       -8.3579232571       -2.2606595796  OAC       81              0.0000000000
      2390       181  OAC       O2             -7.9249359284       -6.6615561222       -2.9731220723  OAC       81              0.0000000000
      2391       181  OAC       DO2            -7.9378226797       -6.6491930587       -3.0238373879  OAC       81              0.0000000000
      2392       181  OAC       H              -8.5567834068       -5.9946125427       -2.6650376262  OAC       81              0.0000000000
      2393       181  OAC       LPO11          -8.9438813640       -8.6682768034       -2.2503186511  OAC       81              0.0000000000
      2394       181  OAC       LPO12          -9.2377248246       -8.1190635823       -2.0388907746  OAC       81              0.0000000000
      2395       181  OAC       LPO21          -7.6498192209       -6.6598175487       -3.1894731171  OAC       81              0.0000000000
      2396       181  OAC       LPO22          -8.2008675726       -6.4634917346       -2.8886695644  OAC       81              0.0000000000
      2397       182  OAC       C1             -3.1765746200       -8.9755160374       -2.5381930276  OAC       82              0.0000000000
      2398       182  OAC       DC1            -3.2297564442       -8.8907834789       -2.5913287738  OAC       82              0.0000000000
      2399       182  OAC       C2             -3.5387363431       -9.1503072884       -1.0760696657  OAC       82              0.0000000000
      2400       182  OAC       DC2            -3.5273538968       -9.1084864012       -1.1362751002  OAC       82              0.0000000000
      2401       182  OAC       H1             -4.0614815142      -10.1205268311       -0.9355971506  OAC       82              0.0000000000
      2402       182  OAC       H2             -4.2002490645       -8.3364248008       -0.7095765340  OAC       82              0.0000000000
      2403       182  OAC       H3             -2.6221215592       -9.1519246993       -0.4482673688  OAC       82              0.0000000000
      2404       182  OAC       O1             -3.6559937396       -7.9675637378       -3.1432260040  OAC       82              0.0000000000
      2405       182  OAC       DO1            -3.6395793408       -7.9377506889       -3.2659246889  OAC       82              0.0000000000
      2406       182  OAC       O2             -2.5218746938       -9.8942636463       -3.1371075833  OAC       82              0.0000000000
      2407       182  OAC       DO2            -2.5680881775       -9.8686067253       -3.1656412661  OAC       82              0.0000000000
      2408       182  OAC       H              -2.2679255688       -9.6593188282       -4.0422439125  OAC       82              0.0000000000
      2409       182  OAC       LPO11          -3.8541894934       -7.7796629831       -2.9243384768  OAC       82              0.0000000000
      2410       182  OAC       LPO12          -3.5482044193       -7.9653899444       -3.4762075907  OAC       82              0.0000000000
      2411       182  OAC       LPO21          -2.4555436832      -10.1574618734       -2.9161395080  OAC       82              0.0000000000
      2412       182  OAC       LPO22          -2.4654877559       -9.8032768663       -3.4703371124  OAC       82              0.0000000000
      2413       183  OAC       C1              9.0368903358      -10.1773338159       -2.3640915485  OAC       83              0.0000000000
      2414       183  OAC       DC1             9.0426838612      -10.1992064656       -2.4125634944  OAC       83              0.0000000000
      2415       183  OAC       C2              9.1578823174       -9.6065064102       -3.7802741623  OAC       83              0.0000000000
      2416       183  OAC       DC2             9.1909994533       -9.6461683963       -3.8947496592  OAC       83              0.0000000000
      2417       183  OAC       H1              9.2110536723       -8.4968038346       -3.7876226785  OAC       83              0.0000000000
      2418       183  OAC       H2              8.2726542793       -9.9362947187       -4.3650236757  OAC       83              0.0000000000
      2419       183  OAC       H3             10.0880853750      -10.0601456808       -4.1843220376  OAC       83              0.0000000000
      2420       183  OAC       O1              8.1202755678      -11.0568427286       -2.2640829578  OAC       83              0.0000000000
      2421       183  OAC       DO1             8.1197885065      -11.0703317146       -2.2798815753  OAC       83              0.0000000000
      2422       183  OAC       O2             10.1468570232      -10.0374203027       -1.7305519679  OAC       83              0.0000000000
      2423       183  OAC       DO2            10.1501780513      -10.0537907280       -1.7580603719  OAC       83              0.0000000000
      2424       183  OAC       H              10.0117473963       -9.7091964337       -0.8289004374  OAC       83              0.0000000000
      2425       183  OAC       LPO11           7.9631571858      -11.1017247730       -2.5735977654  OAC       83              0.0000000000
      2426       183  OAC       LPO12           8.1051749878      -11.1772079804       -1.9357779492  OAC       83              0.0000000000
      2427       183  OAC       LPO21          10.3829089430       -9.8804726035       -1.9358490961  OAC       83              0.0000000000
      2428       183  OAC       LPO22          10.1174985117      -10.1683138858       -1.4072797177  OAC       83              0.0000000000
      2429       184  OAC       C1             -0.1228697842       -1.2275939950       -3.0927240654  OAC       84              0.0000000000
      2430       184  OAC       DC1            -0.2504386015       -1.0349935540       -3.1530476755  OAC       84              0.0000000000
      2431       184  OAC       C2             -0.6239692634       -2.5943440123       -3.4931737740  OAC       84              0.0000000000
      2432       184  OAC       DC2            -0.6566771846       -2.5429376065       -3.4856471033  OAC       84              0.0000000000
      2433       184  OAC       H1             -1.7327901372       -2.6629516219       -3.4817603517  OAC       84              0.0000000000
      2434       184  OAC       H2             -0.2586279688       -3.4404285244       -2.8726999732  OAC       84              0.0000000000
      2435       184  OAC       H3             -0.2902742103       -2.7151222893       -4.5459706303  OAC       84              0.0000000000
      2436       184  OAC       O1              0.8480457967       -1.1867668899       -2.3711828027  OAC       84              0.0000000000
      2437       184  OAC       DO1             0.7631707390       -1.2071445254       -2.4077270485  OAC       84              0.0000000000
      2438       184  OAC       O2             -0.8954739476       -0.3113786404       -3.3398301883  OAC       84              0.0000000000
      2439       184  OAC       DO2            -1.2024882029       -0.3309382622       -3.3117225645  OAC       84              0.0000000000
      2440       184  OAC       H              -0.5657388250        0.5735892527       -3.1228795547  OAC       84              0.0000000000
      2441       184  OAC       LPO11           0.9562601059       -1.5113881537       -2.2976253532  OAC       84              0.0000000000
      2442       184  OAC       LPO12           0.9318828822       -0.8540698442       -2.3020162004  OAC       84              0.0000000000
      2443       184  OAC       LPO21          -1.1856425655       -0.4367220359       -3.4901339021  OAC       84              0.0000000000
      2444       184  OAC       LPO22          -0.7564641936       -0.0067790633       -3.2378724227  OAC       84              0.0000000000
      2445       185  OAC       C1             -1.0309576869        1.5086743493       -7.6966217898  OAC       85              0.0000000000
      2446       185  OAC       DC1            -1.0560798382        1.4946626461       -7.6719609158  OAC       85              0.0000000000
      2447       185  OAC       C2             -1.2816232411        0.3368854455       -6.7022994829  OAC       85              0.0000000000
      2448       185  OAC       DC2            -1.3582419016        0.3099694649       -6.6766817405  OAC       85              0.0000000000
      2449       185  OAC       H1             -2.3367756473        0.0017760405       -6.7954449950  OAC       85              0.0000000000
      2450       185  OAC       H2             -1.1521784457        0.6689775099       -5.6500257990  OAC       85              0.0000000000
      2451       185  OAC       H3             -0.5642367457       -0.4913672201       -6.8858073564  OAC       85              0.0000000000
      2452       185  OAC       O1             -1.2137226286        2.6206772758       -7.1345709753  OAC       85              0.0000000000
      2453       185  OAC       DO1            -1.2317531589        2.6083357797       -7.1059608376  OAC       85              0.0000000000
      2454       185  OAC       O2             -1.1966073255        1.1593906613       -8.9080677898  OAC       85              0.0000000000
      2455       185  OAC       DO2            -1.2635315188        1.1167475816       -8.8823102444  OAC       85              0.0000000000
      2456       185  OAC       H              -1.0054372561        1.8467697402       -9.5637544578  OAC       85              0.0000000000
      2457       185  OAC       LPO11          -1.3059491708        2.5721998839       -6.8004389544  OAC       85              0.0000000000
      2458       185  OAC       LPO12          -1.1562425754        2.8805639077       -7.3618482995  OAC       85              0.0000000000
      2459       185  OAC       LPO21          -1.2870945401        0.8216644352       -8.9239756553  OAC       85              0.0000000000
      2460       185  OAC       LPO22          -1.1373075558        1.4313560090       -9.1202431582  OAC       85              0.0000000000
      2461       186  OAC       C1             -1.3996474362        5.0490713654        6.5549243060  OAC       86              0.0000000000
      2462       186  OAC       DC1            -1.4176143681        5.0073724055        6.5523920264  OAC       86              0.0000000000
      2463       186  OAC       C2             -1.7015995156        6.4738300906        6.9196380697  OAC       86              0.0000000000
      2464       186  OAC       DC2            -1.7050479920        6.4363437000        6.9294279240  OAC       86              0.0000000000
      2465       186  OAC       H1             -1.5766383523        6.6478816465        8.0097810722  OAC       86              0.0000000000
      2466       186  OAC       H2             -2.7366721759        6.7526739970        6.6277619588  OAC       86              0.0000000000
      2467       186  OAC       H3             -0.9852675093        7.1543338620        6.4115986279  OAC       86              0.0000000000
      2468       186  OAC       O1             -2.1719551463        4.4861220465        5.7173317191  OAC       86              0.0000000000
      2469       186  OAC       DO1            -2.1887988650        4.4399404320        5.6999801436  OAC       86              0.0000000000
      2470       186  OAC       O2             -0.5812173143        4.4814051279        7.3552323774  OAC       86              0.0000000000
      2471       186  OAC       DO2            -0.6058798522        4.4705906091        7.3900739340  OAC       86              0.0000000000
      2472       186  OAC       H              -0.2575481873        3.6073218066        7.0903217440  OAC       86              0.0000000000
      2473       186  OAC       LPO11          -2.4221815296        4.7091252372        5.6165530802  OAC       86              0.0000000000
      2474       186  OAC       LPO12          -2.0672287354        4.1570612453        5.6603109514  OAC       86              0.0000000000
      2475       186  OAC       LPO21          -0.4851795022        4.7050359074        7.6067597380  OAC       86              0.0000000000
      2476       186  OAC       LPO22          -0.5239008191        4.1514072191        7.2536636836  OAC       86              0.0000000000
      2477       187  OAC       C1              5.1600200172        0.0698121258       -2.2847865885  OAC       87              0.0000000000
      2478       187  OAC       DC1             5.1122381773        0.0641346559       -2.2874266260  OAC       87              0.0000000000
      2479       187  OAC       C2              5.6546059410        0.2354235125       -0.8765907009  OAC       87              0.0000000000
      2480       187  OAC       DC2             5.5557765122        0.2837811214       -0.8481873277  OAC       87              0.0000000000
      2481       187  OAC       H1              6.4358297211        1.0112022938       -0.7276689503  OAC       87              0.0000000000
      2482       187  OAC       H2              5.9748562308       -0.7712237809       -0.5324657515  OAC       87              0.0000000000
      2483       187  OAC       H3              4.7811167599        0.5122437325       -0.2483326189  OAC       87              0.0000000000
      2484       187  OAC       O1              4.7648714309       -1.0396031348       -2.7322000854  OAC       87              0.0000000000
      2485       187  OAC       DO1             4.7141792691       -1.0491335280       -2.7156830467  OAC       87              0.0000000000
      2486       187  OAC       O2              4.7633449274        1.2301875452       -2.6235713410  OAC       87              0.0000000000
      2487       187  OAC       DO2             4.7399556267        1.2339449034       -2.6127361208  OAC       87              0.0000000000
      2488       187  OAC       H               4.4125901734        1.2658591609       -3.5261563176  OAC       87              0.0000000000
      2489       187  OAC       LPO11           4.7903290367       -1.2848033699       -2.4837473635  OAC       87              0.0000000000
      2490       187  OAC       LPO12           4.6643199008       -1.0052358588       -3.0656791404  OAC       87              0.0000000000
      2491       187  OAC       LPO21           4.8112675761        1.4549012703       -2.3595502026  OAC       87              0.0000000000
      2492       187  OAC       LPO22           4.6407747832        1.2238367097       -2.9513459993  OAC       87              0.0000000000
      2493       188  OAC       C1             -9.9952006694       -3.2869162009       -3.5355636291  OAC       88              0.0000000000
      2494       188  OAC       DC1            -9.9703028219       -3.2322586000       -3.6794847941  OAC       88              0.0000000000
      2495       188  OAC       C2             -9.5590168681       -2.1987466041       -2.5534022119  OAC       88              0.0000000000
      2496       188  OAC       DC2            -9.5151093805       -2.2030684702       -2.6165501607  OAC       88              0.0000000000
      2497       188  OAC       H1             -8.4597437771       -2.0513528050       -2.6181690333  OAC       88              0.0000000000
      2498       188  OAC       H2             -9.7889150608       -2.5578564374       -1.5274841108  OAC       88              0.0000000000
      2499       188  OAC       H3            -10.0983774336       -1.2453394225       -2.7389444650  OAC       88              0.0000000000
      2500       188  OAC       O1            -10.2633938791       -4.4271356570       -3.1200910803  OAC       88              0.0000000000
      2501       188  OAC       DO1           -10.2319457309       -4.3625402576       -3.1506988616  OAC       88              0.0000000000
      2502       188  OAC       O2             -9.8933349458       -2.8845823262       -4.7410053440  OAC       88              0.0000000000
      2503       188  OAC       DO2            -9.8575383885       -2.7797020660       -4.8303318340  OAC       88              0.0000000000
      2504       188  OAC       H              -9.9992291791       -3.6111409001       -5.3733502264  OAC       88              0.0000000000
      2505       188  OAC       LPO11         -10.2218753457       -4.4408481187       -2.7728329921  OAC       88              0.0000000000
      2506       188  OAC       LPO12         -10.3565758261       -4.6330694326       -3.3873145912  OAC       88              0.0000000000
      2507       188  OAC       LPO21          -9.7730962851       -2.5559533640       -4.7477632782  OAC       88              0.0000000000
      2508       188  OAC       LPO22          -9.9944440089       -3.1376560884       -4.9606200708  OAC       88              0.0000000000
      2509       189  OAC       C1             -5.0964551791       -9.8003896782        3.2100338661  OAC       89              0.0000000000
      2510       189  OAC       DC1            -5.0664618795       -9.8025312652        3.2655500857  OAC       89              0.0000000000
      2511       189  OAC       C2             -4.9167722796       -9.3943079305        1.7354368877  OAC       89              0.0000000000
      2512       189  OAC       DC2            -4.8468972481       -9.3710545448        1.7990268555  OAC       89              0.0000000000
      2513       189  OAC       H1             -5.3153175277      -10.1632251453        1.0395568665  OAC       89              0.0000000000
      2514       189  OAC       H2             -3.8395308975       -9.3164031498        1.4750470840  OAC       89              0.0000000000
      2515       189  OAC       H3             -5.3774980840       -8.4046496781        1.5289683022  OAC       89              0.0000000000
      2516       189  OAC       O1             -3.9640419810      -10.0437673579        3.7506024957  OAC       89              0.0000000000
      2517       189  OAC       DO1            -3.9085614590      -10.0157167520        3.7679395433  OAC       89              0.0000000000
      2518       189  OAC       O2             -6.1722413085       -9.6780281212        3.9067399300  OAC       89              0.0000000000
      2519       189  OAC       DO2            -6.1156446138       -9.6636245002        4.0136110615  OAC       89              0.0000000000
      2520       189  OAC       H              -6.1811646406      -10.1065734032        4.7757798115  OAC       89              0.0000000000
      2521       189  OAC       LPO11          -3.7074908024       -9.9974476415        3.5170731042  OAC       89              0.0000000000
      2522       189  OAC       LPO12          -4.0084865026      -10.1356729312        4.0853830956  OAC       89              0.0000000000
      2523       189  OAC       LPO21          -6.4258213255       -9.5363090012        3.7115147626  OAC       89              0.0000000000
      2524       189  OAC       LPO22          -6.1187047414       -9.7969939938        4.2315182500  OAC       89              0.0000000000
      2525       190  OAC       C1              9.8501366279       -5.6116078285       -5.0876065813  OAC       90              0.0000000000
      2526       190  OAC       DC1             9.9498398061       -5.7380714468       -5.1516202723  OAC       90              0.0000000000
      2527       190  OAC       C2              9.5380896024       -4.9308881878       -6.4277942449  OAC       90              0.0000000000
      2528       190  OAC       DC2             9.5482108733       -4.9461871335       -6.4868716159  OAC       90              0.0000000000
      2529       190  OAC       H1              8.4457600007       -4.7716811233       -6.5534531178  OAC       90              0.0000000000
      2530       190  OAC       H2              9.9530653495       -5.5084296330       -7.2813526848  OAC       90              0.0000000000
      2531       190  OAC       H3             10.0502623038       -3.9450878937       -6.4137264070  OAC       90              0.0000000000
      2532       190  OAC       O1             10.4346821115       -6.6956089300       -5.2998843154  OAC       90              0.0000000000
      2533       190  OAC       DO1            10.3967858468       -6.7980917677       -5.4722720603  OAC       90              0.0000000000
      2534       190  OAC       O2              9.3887005045       -4.9982902558       -4.1623536944  OAC       90              0.0000000000
      2535       190  OAC       DO2             9.4135444161       -5.0134943654       -4.2909290387  OAC       90              0.0000000000
      2536       190  OAC       H               9.4548976421       -5.3863443860       -3.2769199413  OAC       90              0.0000000000
      2537       190  OAC       LPO11          10.4738531764       -6.7450773736       -5.6441494759  OAC       90              0.0000000000
      2538       190  OAC       LPO12          10.5074943893       -6.8538062205       -4.9962859137  OAC       90              0.0000000000
      2539       190  OAC       LPO21           9.2209573704       -4.7140653454       -4.2788802633  OAC       90              0.0000000000
      2540       190  OAC       LPO22           9.4645466780       -5.1603703709       -3.8615590896  OAC       90              0.0000000000
      2541       191  OAC       C1             -4.0661626980       -2.7126927218       -4.7858480027  OAC       91              0.0000000000
      2542       191  OAC       DC1            -4.1425112945       -2.7374817084       -4.7426797021  OAC       91              0.0000000000
      2543       191  OAC       C2             -2.8475651167       -2.3166492623       -5.5371889065  OAC       91              0.0000000000
      2544       191  OAC       DC2            -2.9874944916       -2.3437963451       -5.4741681940  OAC       91              0.0000000000
      2545       191  OAC       H1             -2.2742760871       -1.4629916946       -5.1165590835  OAC       91              0.0000000000
      2546       191  OAC       H2             -3.0325493781       -2.0977755736       -6.6105928998  OAC       91              0.0000000000
      2547       191  OAC       H3             -2.2359651056       -3.2363359280       -5.4170104421  OAC       91              0.0000000000
      2548       191  OAC       O1             -5.0768231097       -2.8797193572       -5.4914914344  OAC       91              0.0000000000
      2549       191  OAC       DO1            -5.1031066866       -2.8638865184       -5.5294011102  OAC       91              0.0000000000
      2550       191  OAC       O2             -4.1012207157       -2.6223249554       -3.5176649550  OAC       91              0.0000000000
      2551       191  OAC       DO2            -4.0656813873       -2.5232993917       -3.5025826691  OAC       91              0.0000000000
      2552       191  OAC       H              -4.8735991614       -3.0242145903       -3.0923682841  OAC       91              0.0000000000
      2553       191  OAC       LPO11          -4.9994967898       -2.8195580819       -5.8274992635  OAC       91              0.0000000000
      2554       191  OAC       LPO12          -5.3486731763       -2.9720285691       -5.2913001492  OAC       91              0.0000000000
      2555       191  OAC       LPO21          -3.7966098086       -2.4982287545       -3.3980308121  OAC       91              0.0000000000
      2556       191  OAC       LPO22          -4.4124308076       -2.7294106800       -3.3985812604  OAC       91              0.0000000000
      2557       192  OAC       C1              5.3410982173       10.2351358612        9.1391097688  OAC       92              0.0000000000
      2558       192  OAC       DC1             5.3410182056       10.2303231351        9.1701900072  OAC       92              0.0000000000
      2559       192  OAC       C2              6.7290595927        9.6616379116        9.5020049036  OAC       92              0.0000000000
      2560       192  OAC       DC2             6.7469688570        9.6723953176        9.5179599426  OAC       92              0.0000000000
      2561       192  OAC       H1              7.0586724964       10.0395360969       10.4934025510  OAC       92              0.0000000000
      2562       192  OAC       H2              7.4737046005       10.0213600491        8.7600987124  OAC       92              0.0000000000
      2563       192  OAC       H3              6.7238033596        8.5507768475        9.5187700142  OAC       92              0.0000000000
      2564       192  OAC       O1              5.2473586255       10.9130954250        8.0770828861  OAC       92              0.0000000000
      2565       192  OAC       DO1             5.2538351948       10.9229200963        8.1047446268  OAC       92              0.0000000000
      2566       192  OAC       O2              4.5015618995       10.1590854973       10.1121841551  OAC       92              0.0000000000
      2567       192  OAC       DO2             4.4969405098       10.1689275176       10.1290108747  OAC       92              0.0000000000
      2568       192  OAC       H               3.5787660779       10.2118984399        9.8212895610  OAC       92              0.0000000000
      2569       192  OAC       LPO11           5.5591185391       10.9318266455        7.9191116936  OAC       92              0.0000000000
      2570       192  OAC       LPO12           4.9178358410       11.0228318886        8.0338088403  OAC       92              0.0000000000
      2571       192  OAC       LPO21           4.6539984112       10.0115142970       10.3905469592  OAC       92              0.0000000000
      2572       192  OAC       LPO22           4.1930029796       10.2925141696       10.0147768538  OAC       92              0.0000000000
      2573       193  OAC       C1              2.6719211173       -4.6928644551        7.9551580028  OAC       93              0.0000000000
      2574       193  OAC       DC1             2.5012346087       -4.6489549884        7.9395273649  OAC       93              0.0000000000
      2575       193  OAC       C2              2.4550942605       -5.7003551914        9.1795347152  OAC       93              0.0000000000
      2576       193  OAC       DC2             2.4123864386       -5.7844959318        9.1515571550  OAC       93              0.0000000000
      2577       193  OAC       H1              2.3460729564       -5.1000607199       10.1080183740  OAC       93              0.0000000000
      2578       193  OAC       H2              3.3267135615       -6.3789189093        9.2984972123  OAC       93              0.0000000000
      2579       193  OAC       H3              1.5384130760       -6.3141303704        9.0480180406  OAC       93              0.0000000000
      2580       193  OAC       O1              3.7054581733       -4.9163161667        7.3319901603  OAC       93              0.0000000000
      2581       193  OAC       DO1             3.6029075579       -4.9356594319        7.3727340204  OAC       93              0.0000000000
      2582       193  OAC       O2              1.6355206595       -4.0533100400        7.5477309789  OAC       93              0.0000000000
      2583       193  OAC       DO2             1.5696147381       -3.9909158324        7.4240466797  OAC       93              0.0000000000
      2584       193  OAC       H               1.8261929870       -3.4841192325        6.7870556942  OAC       93              0.0000000000
      2585       193  OAC       LPO11           3.8744735191       -5.1879516246        7.4739337791  OAC       93              0.0000000000
      2586       193  OAC       LPO12           3.7380453067       -4.6882673599        7.0684909754  OAC       93              0.0000000000
      2587       193  OAC       LPO21           1.3564987094       -4.1433165724        7.7388999498  OAC       93              0.0000000000
      2588       193  OAC       LPO22           1.7213249102       -3.8440704139        7.2806047738  OAC       93              0.0000000000
      2589       194  OAC       C1              6.0529877040       -5.9051185136       -1.3698012605  OAC       94              0.0000000000
      2590       194  OAC       DC1             5.9264882017       -5.8761821183       -1.4174484152  OAC       94              0.0000000000
      2591       194  OAC       C2              6.8568858022       -5.1798374919       -2.4275000277  OAC       94              0.0000000000
      2592       194  OAC       DC2             6.7510879907       -5.1598712528       -2.4018270268  OAC       94              0.0000000000
      2593       194  OAC       H1              7.4321479392       -4.2916790430       -2.0890195351  OAC       94              0.0000000000
      2594       194  OAC       H2              6.2596392613       -4.9016589181       -3.3220581589  OAC       94              0.0000000000
      2595       194  OAC       H3              7.6590135258       -5.8771763860       -2.7509665383  OAC       94              0.0000000000
      2596       194  OAC       O1              4.8858812515       -6.1136226255       -1.7873174475  OAC       94              0.0000000000
      2597       194  OAC       DO1             4.8113821053       -6.1299733755       -1.8113917587  OAC       94              0.0000000000
      2598       194  OAC       O2              6.4654307842       -5.9768700313       -0.1968770230  OAC       94              0.0000000000
      2599       194  OAC       DO2             6.4413105476       -5.9628061096       -0.2546306856  OAC       94              0.0000000000
      2600       194  OAC       H               5.8572223032       -6.3640284560        0.4505423140  OAC       94              0.0000000000
      2601       194  OAC       LPO11           4.8499139267       -5.9856246921       -2.1110810659  OAC       94              0.0000000000
      2602       194  OAC       LPO12           4.6995477349       -6.2813347079       -1.5430788797  OAC       94              0.0000000000
      2603       194  OAC       LPO21           6.7726800895       -5.8118018570       -0.1677160513  OAC       94              0.0000000000
      2604       194  OAC       LPO22           6.2374693232       -6.1557316802       -0.0005556466  OAC       94              0.0000000000
      2605       195  OAC       C1             -9.0287440381        5.8444785623        1.1181040587  OAC       95              0.0000000000
      2606       195  OAC       DC1            -8.9493873019        5.8900411146        1.1374819800  OAC       95              0.0000000000
      2607       195  OAC       C2             -9.2183167655        4.4256833698        1.5398340919  OAC       95              0.0000000000
      2608       195  OAC       DC2            -9.1692512102        4.4689346110        1.4871889271  OAC       95              0.0000000000
      2609       195  OAC       H1            -10.1484017869        4.2770410319        2.1290439946  OAC       95              0.0000000000
      2610       195  OAC       H2             -8.3405735425        4.1597724030        2.1668741160  OAC       95              0.0000000000
      2611       195  OAC       H3             -9.2242906710        3.7818730001        0.6344095933  OAC       95              0.0000000000
      2612       195  OAC       O1             -7.9541877053        6.4367427471        1.4428097369  OAC       95              0.0000000000
      2613       195  OAC       DO1            -7.8834506944        6.4507629226        1.3968615120  OAC       95              0.0000000000
      2614       195  OAC       O2             -9.8130357227        6.1934911119        0.1872901116  OAC       95              0.0000000000
      2615       195  OAC       DO2            -9.7768348609        6.1895666420        0.2084913371  OAC       95              0.0000000000
      2616       195  OAC       H              -9.6236115999        7.0686240297       -0.1831446044  OAC       95              0.0000000000
      2617       195  OAC       LPO11          -7.7485204243        6.2201181162        1.6252233844  OAC       95              0.0000000000
      2618       195  OAC       LPO12          -7.9571581107        6.7650879981        1.3216463231  OAC       95              0.0000000000
      2619       195  OAC       LPO21         -10.0191558539        5.9252389731        0.0975388912  OAC       95              0.0000000000
      2620       195  OAC       LPO22          -9.7552065997        6.5277332693        0.1010464292  OAC       95              0.0000000000
      2621       196  OAC       C1              4.0108124477        0.4951918569       -7.8483149883  OAC       96              0.0000000000
      2622       196  OAC       DC1             4.0531303268        0.4785753219       -7.8387723183  OAC       96              0.0000000000
      2623       196  OAC       C2              3.0579180497        1.6015402915       -7.3796320908  OAC       96              0.0000000000
      2624       196  OAC       DC2             3.0693978232        1.5824276323       -7.3173232159  OAC       96              0.0000000000
      2625       196  OAC       H1              2.0440805007        1.4351336715       -7.8024361385  OAC       96              0.0000000000
      2626       196  OAC       H2              3.4234867049        2.6262193013       -7.6048286408  OAC       96              0.0000000000
      2627       196  OAC       H3              2.9903257281        1.4884531219       -6.2764713720  OAC       96              0.0000000000
      2628       196  OAC       O1              5.1737147860        0.7147951918       -8.2452878364  OAC       96              0.0000000000
      2629       196  OAC       DO1             5.2190606898        0.7664567347       -8.1863201906  OAC       96              0.0000000000
      2630       196  OAC       O2              3.6047039508       -0.5966978560       -7.3800940409  OAC       96              0.0000000000
      2631       196  OAC       DO2             3.5712014466       -0.5872098809       -7.3579582971  OAC       96              0.0000000000
      2632       196  OAC       H               4.2241734188       -1.3378086477       -7.4573816380  OAC       96              0.0000000000
      2633       196  OAC       LPO11           5.2420365305        1.0577973608       -8.2318100286  OAC       96              0.0000000000
      2634       196  OAC       LPO12           5.3284355553        0.4139125356       -8.3349043010  OAC       96              0.0000000000
      2635       196  OAC       LPO21           3.3158564584       -0.5450966159       -7.1892945699  OAC       96              0.0000000000
      2636       196  OAC       LPO22           3.8161121104       -0.8565075221       -7.4816101848  OAC       96              0.0000000000
      2637       197  OAC       C1              6.5031337480       -9.9967613379        0.7076511912  OAC       97              0.0000000000
      2638       197  OAC       DC1             6.4219636153      -10.0102774339        0.7161609213  OAC       97              0.0000000000
      2639       197  OAC       C2              5.6803067287       -9.5423745688       -0.5131063536  OAC       97              0.0000000000
      2640       197  OAC       DC2             5.5669128512       -9.5696304026       -0.5486264872  OAC       97              0.0000000000
      2641       197  OAC       H1              5.7934381378       -8.4555037567       -0.7136908096  OAC       97              0.0000000000
      2642       197  OAC       H2              4.6170700497       -9.7544129785       -0.2704368694  OAC       97              0.0000000000
      2643       197  OAC       H3              5.9278864277      -10.1457804187       -1.4125098639  OAC       97              0.0000000000
      2644       197  OAC       O1              5.7359601053      -10.5373782405        1.5810807196  OAC       97              0.0000000000
      2645       197  OAC       DO1             5.7063567023      -10.5411005691        1.6149408443  OAC       97              0.0000000000
      2646       197  OAC       O2              7.7512872528       -9.9141175973        0.7177760795  OAC       97              0.0000000000
      2647       197  OAC       DO2             7.6925316987       -9.9266972773        0.7301305683  OAC       97              0.0000000000
      2648       197  OAC       H               8.1721893282      -10.0493722989        1.5800455324  OAC       97              0.0000000000
      2649       197  OAC       LPO11           5.4049824563      -10.5354361367        1.4672825467  OAC       97              0.0000000000
      2650       197  OAC       LPO12           5.9236754389      -10.6402753627        1.8579834747  OAC       97              0.0000000000
      2651       197  OAC       LPO21           7.8647968151       -9.7794454680        0.4153211294  OAC       97              0.0000000000
      2652       197  OAC       LPO22           7.8766608731      -10.0329726018        1.0221688246  OAC       97              0.0000000000
      2653       198  OAC       C1              8.4873662696        5.1424960437        2.6155487698  OAC       98              0.0000000000
      2654       198  OAC       DC1             8.4357148867        5.0896364312        2.5932289895  OAC       98              0.0000000000
      2655       198  OAC       C2              8.0884005382        6.5909442502        2.5154295375  OAC       98              0.0000000000
      2656       198  OAC       DC2             8.1150209901        6.5442993530        2.4916517754  OAC       98              0.0000000000
      2657       198  OAC       H1              8.3812382739        7.1001962123        3.4584191985  OAC       98              0.0000000000
      2658       198  OAC       H2              6.9882838754        6.7087582567        2.4145127972  OAC       98              0.0000000000
      2659       198  OAC       H3              8.6108856571        7.0870767894        1.6697447229  OAC       98              0.0000000000
      2660       198  OAC       O1              7.5091659815        4.3408184839        2.5554931979  OAC       98              0.0000000000
      2661       198  OAC       DO1             7.4367500657        4.3216521674        2.5425085585  OAC       98              0.0000000000
      2662       198  OAC       O2              9.7494157661        4.9652855029        2.4838423693  OAC       98              0.0000000000
      2663       198  OAC       DO2             9.7308447065        4.9978543786        2.4742228870  OAC       98              0.0000000000
      2664       198  OAC       H              10.0207828858        4.0393382581        2.3947211774  OAC       98              0.0000000000
      2665       198  OAC       LPO11           7.2102498490        4.5192148034        2.5191077756  OAC       98              0.0000000000
      2666       198  OAC       LPO12           7.6231178597        4.0108359364        2.5805229355  OAC       98              0.0000000000
      2667       198  OAC       LPO21           9.9088757483        5.2727753920        2.4336180507  OAC       98              0.0000000000
      2668       198  OAC       LPO22           9.8257880068        4.6246812582        2.5094554398  OAC       98              0.0000000000
      2669       199  OAC       C1              5.3283267196       -3.9830484732       -9.9559222485  OAC       99              0.0000000000
      2670       199  OAC       DC1             5.4163104275       -4.0887674293       -9.9598508191  OAC       99              0.0000000000
      2671       199  OAC       C2              5.5342257294       -2.4779134463       -9.7913379660  OAC       99              0.0000000000
      2672       199  OAC       DC2             5.5506163530       -2.5807637940       -9.8026600997  OAC       99              0.0000000000
      2673       199  OAC       H1              5.7127437835       -2.1646701836       -8.7404664403  OAC       99              0.0000000000
      2674       199  OAC       H2              4.6525128767       -1.8929701109      -10.1300778976  OAC       99              0.0000000000
      2675       199  OAC       H3              6.4059039713       -2.1405597736      -10.3919131428  OAC       99              0.0000000000
      2676       199  OAC       O1              4.1963690330       -4.5174934788      -10.1849212841  OAC       99              0.0000000000
      2677       199  OAC       DO1             4.2147525965       -4.5215324641      -10.1728826568  OAC       99              0.0000000000
      2678       199  OAC       O2              6.3821621244       -4.6829747606       -9.9524111838  OAC       99              0.0000000000
      2679       199  OAC       DO2             6.4946702449       -4.7421732759       -9.9395873126  OAC       99              0.0000000000
      2680       199  OAC       H               6.2371244768       -5.6101829099       -9.7111434303  OAC       99              0.0000000000
      2681       199  OAC       LPO11           3.9489391615       -4.2706260423      -10.2032223084  OAC       99              0.0000000000
      2682       199  OAC       LPO12           4.2308365597       -4.8649094278      -10.2097032939  OAC       99              0.0000000000
      2683       199  OAC       LPO21           6.6624176304       -4.4771782007       -9.9123533842  OAC       99              0.0000000000
      2684       199  OAC       LPO22           6.3013398970       -5.0212290019       -9.9918045313  OAC       99              0.0000000000
      2685       200  OAC       C1             -3.6560304814       -5.4311433618       10.1630042928  OAC       100             0.0000000000
      2686       200  OAC       DC1            -3.6840450812       -5.4737414905       10.1576796474  OAC       100             0.0000000000
      2687       200  OAC       C2             -2.6529464100       -6.4901489681        9.6073381765  OAC       100             0.0000000000
      2688       200  OAC       DC2            -2.6464087177       -6.5611761763        9.6236059649  OAC       100             0.0000000000
      2689       200  OAC       H1             -2.6977878561       -7.3272131599       10.3364703903  OAC       100             0.0000000000
      2690       200  OAC       H2             -1.6201253585       -6.0890632292        9.5252899808  OAC       100             0.0000000000
      2691       200  OAC       H3             -2.8544297419       -6.9194399510        8.6026318918  OAC       100             0.0000000000
      2692       200  OAC       O1             -3.0362588722       -4.5107270458       10.7330883445  OAC       100             0.0000000000
      2693       200  OAC       DO1            -3.0659217735       -4.5305700393       10.7161689282  OAC       100             0.0000000000
      2694       200  OAC       O2             -4.9331412601       -5.6284889456       10.1834782326  OAC       100             0.0000000000
      2695       200  OAC       DO2            -4.9595376732       -5.6423673825       10.1959554823  OAC       100             0.0000000000
      2696       200  OAC       H              -5.4519036860       -4.8162992513       10.2844457834  OAC       100             0.0000000000
      2697       200  OAC       LPO11          -2.6918377174       -4.5711523016       10.7181599638  OAC       100             0.0000000000
      2698       200  OAC       LPO12          -3.2617373546       -4.2736612746       10.8574236739  OAC       100             0.0000000000
      2699       200  OAC       LPO21          -5.0077851011       -5.9432645090       10.0498943950  OAC       100             0.0000000000
      2700       200  OAC       LPO22          -5.0950736575       -5.3502703329       10.3208547308  OAC       100             0.0000000000
