PSF EXT CMAP CHEQ DRUDE XPLOR

         4 !NTITLE
*~~~~~~~~~~~~~~~~~~~~~~~~~~~~~~~~~~~~~~~~~~~~~~~~~~~~~~~~~~~~~~~~~~~~~~~        
*~ MINIMIZATION OF PACKMOL STRUCTURE                                            
*~~~~~~~~~~~~~~~~~~~~~~~~~~~~~~~~~~~~~~~~~~~~~~~~~~~~~~~~~~~~~~~~~~~~~~~        
*  DATE:    10/ 7/22     14:16:25      CREATED BY USER: marta                   

       108 !NATOM
         1 IM1H     1        IM1H     C1       CD33F     2.48500       11.6110           0  -1.18100       1.10000    
         2 IM1H     1        IM1H     DC1      DRUD     -2.66700      0.400000           0   0.00000       0.00000    
         3 IM1H     1        IM1H     H1       HDA3A    0.135000       1.00800           0   0.00000       0.00000    
         4 IM1H     1        IM1H     H2       HDA3A    0.135000       1.00800           0   0.00000       0.00000    
         5 IM1H     1        IM1H     H3       HDA3A    0.135000       1.00800           0   0.00000       0.00000    
         6 IM1H     1        IM1H     N1       ND2R5C    2.35720       13.6070           0 -0.803000       1.00000    
         7 IM1H     1        IM1H     DN1      DRUD     -2.19920      0.400000           0   0.00000       0.00000    
         8 IM1H     1        IM1H     C2       CD2R5D    2.44700       11.6110           0  -1.08300       1.10000    
         9 IM1H     1        IM1H     DC2      DRUD     -2.55400      0.400000           0   0.00000       0.00000    
        10 IM1H     1        IM1H     H4       HDR5D    0.195000       1.00800           0   0.00000       0.00000    
        11 IM1H     1        IM1H     C3       CD2R5D    2.50700       11.6110           0  -1.08300       1.10000    
        12 IM1H     1        IM1H     DC3      DRUD     -2.55400      0.400000           0   0.00000       0.00000    
        13 IM1H     1        IM1H     H5       HDR5D    0.192000       1.00800           0   0.00000       0.00000    
        14 IM1H     1        IM1H     C4       CD2R5E    2.72410       11.6110           0  -1.25300       1.20000    
        15 IM1H     1        IM1H     DC4      DRUD     -2.74710      0.400000           0   0.00000       0.00000    
        16 IM1H     1        IM1H     H6       HDR5E    0.203000       1.00800           0   0.00000       0.00000    
        17 IM1H     1        IM1H     N2       ND2R5C    2.04220       13.6070           0 -0.803000       1.00000    
        18 IM1H     1        IM1H     DN2      DRUD     -2.19920      0.400000           0   0.00000       0.00000    
        19 IM1H     1        IM1H     H7       HDP1A    0.363000       1.00800           0   0.00000       0.00000    
        20 IM1H     1        IM1H     LPN21    LPD       0.00000       0.00000          -1   0.00000       0.00000    
        21 IM1H     2        IM1H     C1       CD33F     2.48500       11.6110           0  -1.18100       1.10000    
        22 IM1H     2        IM1H     DC1      DRUD     -2.66700      0.400000           0   0.00000       0.00000    
        23 IM1H     2        IM1H     H1       HDA3A    0.135000       1.00800           0   0.00000       0.00000    
        24 IM1H     2        IM1H     H2       HDA3A    0.135000       1.00800           0   0.00000       0.00000    
        25 IM1H     2        IM1H     H3       HDA3A    0.135000       1.00800           0   0.00000       0.00000    
        26 IM1H     2        IM1H     N1       ND2R5C    2.35720       13.6070           0 -0.803000       1.00000    
        27 IM1H     2        IM1H     DN1      DRUD     -2.19920      0.400000           0   0.00000       0.00000    
        28 IM1H     2        IM1H     C2       CD2R5D    2.44700       11.6110           0  -1.08300       1.10000    
        29 IM1H     2        IM1H     DC2      DRUD     -2.55400      0.400000           0   0.00000       0.00000    
        30 IM1H     2        IM1H     H4       HDR5D    0.195000       1.00800           0   0.00000       0.00000    
        31 IM1H     2        IM1H     C3       CD2R5D    2.50700       11.6110           0  -1.08300       1.10000    
        32 IM1H     2        IM1H     DC3      DRUD     -2.55400      0.400000           0   0.00000       0.00000    
        33 IM1H     2        IM1H     H5       HDR5D    0.192000       1.00800           0   0.00000       0.00000    
        34 IM1H     2        IM1H     C4       CD2R5E    2.72410       11.6110           0  -1.25300       1.20000    
        35 IM1H     2        IM1H     DC4      DRUD     -2.74710      0.400000           0   0.00000       0.00000    
        36 IM1H     2        IM1H     H6       HDR5E    0.203000       1.00800           0   0.00000       0.00000    
        37 IM1H     2        IM1H     N2       ND2R5C    2.04220       13.6070           0 -0.803000       1.00000    
        38 IM1H     2        IM1H     DN2      DRUD     -2.19920      0.400000           0   0.00000       0.00000    
        39 IM1H     2        IM1H     H7       HDP1A    0.363000       1.00800           0   0.00000       0.00000    
        40 IM1H     2        IM1H     LPN21    LPD       0.00000       0.00000          -1   0.00000       0.00000    
        41 OAC      1        OAC      C1       CD2O2A    3.18170       11.6110           0  -1.01600      0.899000    
        42 OAC      1        OAC      DC1      DRUD     -2.47370      0.400000           0   0.00000       0.00000    
        43 OAC      1        OAC      C2       CD33A     2.98790       11.6110           0  -1.68100       1.41400    
        44 OAC      1        OAC      DC2      DRUD     -3.18190      0.400000           0   0.00000       0.00000    
        45 OAC      1        OAC      H1       HDA3A    0.400000E-02   1.00800           0   0.00000       0.00000    
        46 OAC      1        OAC      H2       HDA3A    0.400000E-02   1.00800           0   0.00000       0.00000    
        47 OAC      1        OAC      H3       HDA3A    0.400000E-02   1.00800           0   0.00000       0.00000    
        48 OAC      1        OAC      O1       OD2C2A    2.05480       15.5994           0 -0.699000       2.39900    
        49 OAC      1        OAC      DO1      DRUD     -2.05180      0.400000           0   0.00000       0.00000    
        50 OAC      1        OAC      O2       OD2C2A    2.05480       15.5994           0 -0.699000       2.39900    
        51 OAC      1        OAC      DO2      DRUD     -2.05180      0.400000           0   0.00000       0.00000    
        52 OAC      1        OAC      H        HDP1A     0.00000       1.00800           0   0.00000       0.00000    
        53 OAC      1        OAC      LPO11    LPD     -0.383000       0.00000          -1   0.00000       0.00000    
        54 OAC      1        OAC      LPO12    LPD     -0.383000       0.00000          -1   0.00000       0.00000    
        55 OAC      1        OAC      LPO21    LPD     -0.383000       0.00000          -1   0.00000       0.00000    
        56 OAC      1        OAC      LPO22    LPD     -0.383000       0.00000          -1   0.00000       0.00000    
        57 OAC      2        OAC      C1       CD2O2A    3.18170       11.6110           0  -1.01600      0.899000    
        58 OAC      2        OAC      DC1      DRUD     -2.47370      0.400000           0   0.00000       0.00000    
        59 OAC      2        OAC      C2       CD33A     2.98790       11.6110           0  -1.68100       1.41400    
        60 OAC      2        OAC      DC2      DRUD     -3.18190      0.400000           0   0.00000       0.00000    
        61 OAC      2        OAC      H1       HDA3A    0.400000E-02   1.00800           0   0.00000       0.00000    
        62 OAC      2        OAC      H2       HDA3A    0.400000E-02   1.00800           0   0.00000       0.00000    
        63 OAC      2        OAC      H3       HDA3A    0.400000E-02   1.00800           0   0.00000       0.00000    
        64 OAC      2        OAC      O1       OD2C2A    2.05480       15.5994           0 -0.699000       2.39900    
        65 OAC      2        OAC      DO1      DRUD     -2.05180      0.400000           0   0.00000       0.00000    
        66 OAC      2        OAC      O2       OD2C2A    2.05480       15.5994           0 -0.699000       2.39900    
        67 OAC      2        OAC      DO2      DRUD     -2.05180      0.400000           0   0.00000       0.00000    
        68 OAC      2        OAC      H        HDP1A     0.00000       1.00800           0   0.00000       0.00000    
        69 OAC      2        OAC      LPO11    LPD     -0.383000       0.00000          -1   0.00000       0.00000    
        70 OAC      2        OAC      LPO12    LPD     -0.383000       0.00000          -1   0.00000       0.00000    
        71 OAC      2        OAC      LPO21    LPD     -0.383000       0.00000          -1   0.00000       0.00000    
        72 OAC      2        OAC      LPO22    LPD     -0.383000       0.00000          -1   0.00000       0.00000    
        73 IM1      1        IM1      C1       CD33G     2.39060       11.6110           0  -1.08100       1.00000    
        74 IM1      1        IM1      DC1      DRUD     -2.55160      0.400000           0   0.00000       0.00000    
        75 IM1      1        IM1      H1       HDA3A    0.940000E-01   1.00800           0   0.00000       0.00000    
        76 IM1      1        IM1      H2       HDA3A    0.940000E-01   1.00800           0   0.00000       0.00000    
        77 IM1      1        IM1      H3       HDA3A    0.940000E-01   1.00800           0   0.00000       0.00000    
        78 IM1      1        IM1      N1       ND2R5A    2.67030       13.6070           0  -1.06300       1.30000    
        79 IM1      1        IM1      DN1      DRUD     -2.53030      0.400000           0   0.00000       0.00000    
        80 IM1      1        IM1      C2       CD2R5A    2.51190       11.6110           0  -1.37800       1.30000    
        81 IM1      1        IM1      DC2      DRUD     -2.88090      0.400000           0   0.00000       0.00000    
        82 IM1      1        IM1      H4       HDR5A    0.150000       1.00800           0   0.00000       0.00000    
        83 IM1      1        IM1      C3       CD2R5A    3.06890       11.6110           0  -1.37800       1.30000    
        84 IM1      1        IM1      DC3      DRUD     -2.88090      0.400000           0   0.00000       0.00000    
        85 IM1      1        IM1      H5       HDR5A    0.530000E-01   1.00800           0   0.00000       0.00000    
        86 IM1      1        IM1      C4       CD2R5B    2.40440       11.6110           0 -0.868000       1.30000    
        87 IM1      1        IM1      DC4      DRUD     -2.28640      0.400000           0   0.00000       0.00000    
        88 IM1      1        IM1      H6       HDR5B    0.730000E-01   1.00800           0   0.00000       0.00000    
        89 IM1      1        IM1      N2       ND2R5B    2.24930       13.6070           0 -0.840000       1.00000    
        90 IM1      1        IM1      DN2      DRUD     -2.24930      0.400000           0   0.00000       0.00000    
        91 IM1      1        IM1      H7       HDP1A     0.00000       1.00800           0   0.00000       0.00000    
        92 IM1      1        IM1      LPN21    LPD     -0.474000       0.00000          -1   0.00000       0.00000    
        93 HOAC     1        HOAC     C1       CD2O3A    3.55420       11.6110           0  -1.20700      0.708000    
        94 HOAC     1        HOAC     DC1      DRUD     -2.69620      0.400000           0   0.00000       0.00000    
        95 HOAC     1        HOAC     C2       CD33C     3.26820       11.6110           0  -2.11400      0.750000    
        96 HOAC     1        HOAC     DC2      DRUD     -3.56820      0.400000           0   0.00000       0.00000    
        97 HOAC     1        HOAC     H1       HDA3A    0.920000E-01   1.00800           0   0.00000       0.00000    
        98 HOAC     1        HOAC     H2       HDA3A    0.920000E-01   1.00800           0   0.00000       0.00000    
        99 HOAC     1        HOAC     H3       HDA3A    0.920000E-01   1.00800           0   0.00000       0.00000    
       100 HOAC     1        HOAC     O1       OD2C3A    2.35650       15.5994           0 -0.922000       1.53900    
       101 HOAC     1        HOAC     DO1      DRUD     -2.35650      0.400000           0   0.00000       0.00000    
       102 HOAC     1        HOAC     O2       OD31F     2.77650       15.5990           0  -1.28000       1.12400    
       103 HOAC     1        HOAC     DO2      DRUD     -2.77650      0.400000           0   0.00000       0.00000    
       104 HOAC     1        HOAC     H        HDP1A    0.374000       1.00800           0   0.00000       0.00000    
       105 HOAC     1        HOAC     LPO11    LPD     -0.319000       0.00000          -1   0.00000       0.00000    
       106 HOAC     1        HOAC     LPO12    LPD     -0.319000       0.00000          -1   0.00000       0.00000    
       107 HOAC     1        HOAC     LPO21    LPD     -0.285000       0.00000          -1   0.00000       0.00000    
       108 HOAC     1        HOAC     LPO22    LPD     -0.285000       0.00000          -1   0.00000       0.00000    

       105 !NBOND: bonds
         1         2         6         7         8         9        11        12
        14        15        17        18         1         6         1         3
         1         4         1         5         6         8         6        14
         8        11         8        10        11        13        11        17
        17        14        14        16        17        19        20        17
        21        22        26        27        28        29        31        32
        34        35        37        38        21        26        21        23
        21        24        21        25        26        28        26        34
        28        31        28        30        31        33        31        37
        37        34        34        36        37        39        40        37
        41        42        43        44        48        49        50        51
        43        41        41        48        41        50        43        45
        43        46        43        47        50        52        48        53
        48        54        50        55        50        56        57        58
        59        60        64        65        66        67        59        57
        57        64        57        66        59        61        59        62
        59        63        66        68        64        69        64        70
        66        71        66        72        73        74        78        79
        80        81        83        84        86        87        89        90
        73        78        73        75        73        76        73        77
        78        80        78        86        80        83        80        82
        83        85        83        89        89        86        86        88
        89        91        92        89        93        94        95        96
       100       101       102       103        95        93        93       100
        93       102        95        97        95        98        95        99
       102       104       100       105       100       106       102       107
       102       108

        93 !NTHETA: angles
         3         1         4         3         1         5         3         1         6
         4         1         5         4         1         6         5         1         6
         1         6         8         1         6        14         8         6        14
         6         8        10         6         8        11        10         8        11
         8        11        13         8        11        17        13        11        17
         6        14        16         6        14        17        16        14        17
        11        17        14        11        17        19        14        17        19
        23        21        24        23        21        25        23        21        26
        24        21        25        24        21        26        25        21        26
        21        26        28        21        26        34        28        26        34
        26        28        30        26        28        31        30        28        31
        28        31        33        28        31        37        33        31        37
        26        34        36        26        34        37        36        34        37
        31        37        34        31        37        39        34        37        39
        43        41        48        43        41        50        48        41        50
        41        43        45        41        43        46        41        43        47
        45        43        46        45        43        47        46        43        47
        41        50        52        59        57        64        59        57        66
        64        57        66        57        59        61        57        59        62
        57        59        63        61        59        62        61        59        63
        62        59        63        57        66        68        75        73        76
        75        73        77        75        73        78        76        73        77
        76        73        78        77        73        78        73        78        80
        73        78        86        80        78        86        78        80        82
        78        80        83        82        80        83        80        83        85
        80        83        89        85        83        89        78        86        88
        78        86        89        88        86        89        83        89        86
        83        89        91        86        89        91        95        93       100
        95        93       102       100        93       102        93        95        97
        93        95        98        93        95        99        97        95        98
        97        95        99        98        95        99        93       102       104

       102 !NPHI: dihedrals
         1         6         8        10         1         6         8        11
         1         6        14        16         1         6        14        17
         3         1         6         8         3         1         6        14
         4         1         6         8         4         1         6        14
         5         1         6         8         5         1         6        14
         6         8        11        13         6         8        11        17
         6        14        17        11         6        14        17        19
         8         6        14        16         8         6        14        17
         8        11        17        14         8        11        17        19
        10         8         6        14        10         8        11        13
        10         8        11        17        11         8         6        14
        11        17        14        16        13        11        17        14
        13        11        17        19        16        14        17        19
        21        26        28        30        21        26        28        31
        21        26        34        36        21        26        34        37
        23        21        26        28        23        21        26        34
        24        21        26        28        24        21        26        34
        25        21        26        28        25        21        26        34
        26        28        31        33        26        28        31        37
        26        34        37        31        26        34        37        39
        28        26        34        36        28        26        34        37
        28        31        37        34        28        31        37        39
        30        28        26        34        30        28        31        33
        30        28        31        37        31        28        26        34
        31        37        34        36        33        31        37        34
        33        31        37        39        36        34        37        39
        43        41        50        52        45        43        41        48
        45        43        41        50        46        43        41        48
        46        43        41        50        47        43        41        48
        47        43        41        50        48        41        50        52
        59        57        66        68        61        59        57        64
        61        59        57        66        62        59        57        64
        62        59        57        66        63        59        57        64
        63        59        57        66        64        57        66        68
        73        78        80        82        73        78        80        83
        73        78        86        88        73        78        86        89
        75        73        78        80        75        73        78        86
        76        73        78        80        76        73        78        86
        77        73        78        80        77        73        78        86
        78        80        83        85        78        80        83        89
        78        86        89        83        78        86        89        91
        80        78        86        88        80        78        86        89
        80        83        89        86        80        83        89        91
        82        80        78        86        82        80        83        85
        82        80        83        89        83        80        78        86
        83        89        86        88        85        83        89        86
        85        83        89        91        88        86        89        91
        95        93       102       104        97        95        93       100
        97        95        93       102        98        95        93       100
        98        95        93       102        99        95        93       100
        99        95        93       102       100        93       102       104

        18 !NIMPHI: impropers
         8        11         6        10        11         8        17        13
        14         6        17        16        17        14        11        19
         6        14         8         1        28        31        26        30
        31        28        37        33        34        26        37        36
        37        34        31        39        26        34        28        21
        48        43        50        41        64        59        66        57
        80        83        78        82        83        80        89        85
        86        78        89        88        89        86        83        91
        78        86        80        73       100        95       102        93

         0 !NDON: donors


         0 !NACC: acceptors


         0 !NNB

         0         0         0         0         0         0         0         0
         0         0         0         0         0         0         0         0
         0         0         0         0         0         0         0         0
         0         0         0         0         0         0         0         0
         0         0         0         0         0         0         0         0
         0         0         0         0         0         0         0         0
         0         0         0         0         0         0         0         0
         0         0         0         0         0         0         0         0
         0         0         0         0         0         0         0         0
         0         0         0         0         0         0         0         0
         0         0         0         0         0         0         0         0
         0         0         0         0         0         0         0         0
         0         0         0         0         0         0         0         0
         0         0         0         0

         6         0 !NGRP NST2
         0         2         0        20         2         0        40         2         0
        56         2         0        72         1         0        92         1         0

         1 !MOLNT
         1         1         1         1         1         1         1         1
         1         1         1         1         1         1         1         1
         1         1         1         1         1         1         1         1
         1         1         1         1         1         1         1         1
         1         1         1         1         1         1         1         1
         1         1         1         1         1         1         1         1
         1         1         1         1         1         1         1         1
         1         1         1         1         1         1         1         1
         1         1         1         1         1         1         1         1
         1         1         1         1         1         1         1         1
         1         1         1         1         1         1         1         1
         1         1         1         1         1         1         1         1
         1         1         1         1         1         1         1         1
         1         1         1         1

        15        60 !NUMLP NUMLPH
         3         1   F -0.300000       179.990       179.990    
         3         5   F -0.300000       179.990       179.990    
         3         9   F  0.350000       110.000       0.00000    
         3        13   F  0.350000       110.000       180.000    
         3        17   F  0.350000       110.000       0.00000    
         3        21   F  0.350000       110.000       180.000    
         3        25   F  0.350000       110.000       0.00000    
         3        29   F  0.350000       110.000       180.000    
         3        33   F  0.350000       110.000       0.00000    
         3        37   F  0.350000       110.000       180.000    
         3        41   F -0.300000       179.990       179.990    
         3        45   F  0.300000       91.0000       0.00000    
         3        49   F  0.300000       91.0000       180.000    
         3        53   F  0.350000       110.900       91.0000    
         3        57   F  0.350000       110.900       269.000    
        20        17        14        11        40        37        34        31
        53        48        41        43        54        48        41        43
        55        50        41        43        56        50        41        43
        69        64        57        59        70        64        57        59
        71        66        57        59        72        66        57        59
        92        89        86        83       105       100        93       102
       106       100        93       102       107       102        93       104
       108       102        93       104

         6 !NUMANISO
             395.273      -197.531      -11.9553    
             395.273      -197.531      -11.9553    
             395.273      -197.531      -11.9553    
             395.273      -197.531      -11.9553    
             512.453      -102.604      -77.3205    
             205.601      -205.516       27.7492    
        48        41        53        54        50        41        55        56
        64        57        69        70        66        57        71        72
       100        93       105       106       102        93       107       108

         0 !NCRTERM: cross-terms

