*~~~~~~~~~~~~~~~~~~~~~~~~~~~~~~~~~~~~~~~~~~~~~~~~~~~~~~~~~~~~~~~~~~~~~~~
*~ MINIMIZATION OF PACKMOL STRUCTURE
*~~~~~~~~~~~~~~~~~~~~~~~~~~~~~~~~~~~~~~~~~~~~~~~~~~~~~~~~~~~~~~~~~~~~~~~
*  DATE:    10/ 7/22     14:16:25      CREATED BY USER: marta
*
       108  EXT
         1         1  IM1H      C1              0.4406986474        1.6927472120       -3.1040207672  IM1H      1               0.0000000000
         2         1  IM1H      DC1             0.4096642083        1.7007961728       -3.1109820466  IM1H      1               0.0000000000
         3         1  IM1H      H1              0.6445487756        2.0704501965       -2.0792736848  IM1H      1               0.0000000000
         4         1  IM1H      H2              0.8897018099        2.2876566630       -3.9279139071  IM1H      1               0.0000000000
         5         1  IM1H      H3              0.6037294730        0.5950990898       -3.1579702787  IM1H      1               0.0000000000
         6         1  IM1H      N1             -0.7486860421        1.9996684036       -2.9282093234  IM1H      1               0.0000000000
         7         1  IM1H      DN1            -0.7718542564        2.0104885439       -2.9250185229  IM1H      1               0.0000000000
         8         1  IM1H      C2             -1.3060381706        3.1031566647       -3.3770209336  IM1H      1               0.0000000000
         9         1  IM1H      DC2            -1.2898549178        3.1125350903       -3.3643773618  IM1H      1               0.0000000000
        10         1  IM1H      H4             -0.7154358474        3.8777651953       -3.8503701916  IM1H      1               0.0000000000
        11         1  IM1H      C3             -2.6101480518        2.8286375982       -3.2418158629  IM1H      1               0.0000000000
        12         1  IM1H      DC3            -2.5945006781        2.8532512426       -3.2392420558  IM1H      1               0.0000000000
        13         1  IM1H      H5             -3.4776725966        3.3059413926       -3.6805313197  IM1H      1               0.0000000000
        14         1  IM1H      C4             -1.5540252536        1.1526291302       -2.3907259183  IM1H      1               0.0000000000
        15         1  IM1H      DC4            -1.5185865863        1.1583569565       -2.3918142136  IM1H      1               0.0000000000
        16         1  IM1H      H6             -1.3103130788        0.1102657738       -2.1853408920  IM1H      1               0.0000000000
        17         1  IM1H      N2             -2.7148994288        1.6813333699       -2.5302819001  IM1H      1               0.0000000000
        18         1  IM1H      DN2            -2.6833627392        1.7027127395       -2.5310829170  IM1H      1               0.0000000000
        19         1  IM1H      H7             -3.5627908080        1.1552626153       -2.4644809099  IM1H      1               0.0000000000
        20         1  IM1H      LPN21          -2.9645991478        1.5592342736       -2.4174020479  IM1H      1               0.0000000000
        21         2  IM1H      C1              2.0307205453       -3.3136456581        2.4601009695  IM1H      2               0.0000000000
        22         2  IM1H      DC1             2.0204972873       -3.3066058704        2.4564915842  IM1H      2               0.0000000000
        23         2  IM1H      H1              1.1533547105       -3.9376773206        2.7342080226  IM1H      2               0.0000000000
        24         2  IM1H      H2              2.0538608801       -2.3521609641        3.0162778373  IM1H      2               0.0000000000
        25         2  IM1H      H3              2.9746210080       -3.8609098572        2.6695641276  IM1H      2               0.0000000000
        26         2  IM1H      N1              1.9704027351       -3.0211036010        1.0405705489  IM1H      2               0.0000000000
        27         2  IM1H      DN1             1.9641189913       -3.0274541401        1.0395196904  IM1H      2               0.0000000000
        28         2  IM1H      C2              0.8787522201       -2.7417769725        0.2343193477  IM1H      2               0.0000000000
        29         2  IM1H      DC2             0.8819367292       -2.7672569738        0.2504053558  IM1H      2               0.0000000000
        30         2  IM1H      H4             -0.1264710605       -2.6616564422        0.6292824560  IM1H      2               0.0000000000
        31         2  IM1H      C3              1.3420348444       -2.5047988988       -1.0387059218  IM1H      2               0.0000000000
        32         2  IM1H      DC3             1.3286778443       -2.5224223737       -1.0425000102  IM1H      2               0.0000000000
        33         2  IM1H      H5              0.8657637593       -2.2512192677       -1.9777225480  IM1H      2               0.0000000000
        34         2  IM1H      C4              3.0546746695       -2.9657859482        0.2754530763  IM1H      2               0.0000000000
        35         2  IM1H      DC4             3.0405408945       -3.0000497960        0.3057919329  IM1H      2               0.0000000000
        36         2  IM1H      H6              4.0683659563       -3.1645647726        0.6233279877  IM1H      2               0.0000000000
        37         2  IM1H      N2              2.6983375571       -2.6324644758       -0.9749532675  IM1H      2               0.0000000000
        38         2  IM1H      DN2             2.6997344944       -2.6439941062       -0.9601739770  IM1H      2               0.0000000000
        39         2  IM1H      H7              3.2519720446       -2.7584585313       -1.7981266102  IM1H      2               0.0000000000
        40         2  IM1H      LPN21           2.8900194271       -2.5930618966       -1.2023416961  IM1H      2               0.0000000000
        41         3  OAC       C1              2.7487212255       -0.0464036038        1.0467902986  OAC       1               0.0000000000
        42         3  OAC       DC1             2.7542514889       -0.0607137899        1.0403838049  OAC       1               0.0000000000
        43         3  OAC       C2              2.5439041165        0.7294202491        2.3262024562  OAC       1               0.0000000000
        44         3  OAC       DC2             2.5389059833        0.7183929101        2.3005119505  OAC       1               0.0000000000
        45         3  OAC       H1              2.8132088237        1.7909163227        2.1390606356  OAC       1               0.0000000000
        46         3  OAC       H2              3.1086321208        0.2338915440        3.1446489013  OAC       1               0.0000000000
        47         3  OAC       H3              1.5567217854        0.6877291325        2.8341925132  OAC       1               0.0000000000
        48         3  OAC       O1              3.9047222977       -0.4785305967        0.7511450505  OAC       1               0.0000000000
        49         3  OAC       DO1             3.9117793239       -0.4959364641        0.7565904259  OAC       1               0.0000000000
        50         3  OAC       O2              1.6441844541       -0.2678667092        0.4584556921  OAC       1               0.0000000000
        51         3  OAC       DO2             1.6344158427       -0.2756845101        0.4710306991  OAC       1               0.0000000000
        52         3  OAC       H               1.7428923642       -0.7368556570       -0.3837242859  OAC       1               0.0000000000
        53         3  OAC       LPO11           4.1334588956       -0.3886773335        1.0003557241  OAC       1               0.0000000000
        54         3  OAC       LPO12           3.8940730716       -0.6499075214        0.4461589136  OAC       1               0.0000000000
        55         3  OAC       LPO21           1.3806114470       -0.1297231921        0.6426991143  OAC       1               0.0000000000
        56         3  OAC       LPO22           1.6996830053       -0.4477298107        0.1633808278  OAC       1               0.0000000000
        57         4  OAC       C1              2.7768599478        2.4895359016       -1.9751781431  OAC       2               0.0000000000
        58         4  OAC       DC1             2.7796047609        2.5081308705       -2.0214737891  OAC       2               0.0000000000
        59         4  OAC       C2              2.3382562767        2.6056797632       -0.5803642514  OAC       2               0.0000000000
        60         4  OAC       DC2             2.3533028390        2.6112018019       -0.6356595191  OAC       2               0.0000000000
        61         4  OAC       H1              3.1866374317        2.7349622581        0.1252251859  OAC       2               0.0000000000
        62         4  OAC       H2              1.6329208957        1.8247489227       -0.2240357194  OAC       2               0.0000000000
        63         4  OAC       H3              1.5267391730        3.3644344060       -0.5731266802  OAC       2               0.0000000000
        64         4  OAC       O1              2.8463454646        1.2794649078       -2.2742601671  OAC       2               0.0000000000
        65         4  OAC       DO1             2.8810716476        1.2960364432       -2.2940829134  OAC       2               0.0000000000
        66         4  OAC       O2              2.8085050014        3.4666073663       -2.8025981486  OAC       2               0.0000000000
        67         4  OAC       DO2             2.8271683235        3.4940256212       -2.8188291035  OAC       2               0.0000000000
        68         4  OAC       H               3.2471728068        3.2624711383       -3.6421575312  OAC       2               0.0000000000
        69         4  OAC       LPO11           2.7553651219        1.0828054870       -1.9994008404  OAC       2               0.0000000000
        70         4  OAC       LPO12           2.9506513110        1.2440643802       -2.6064755988  OAC       2               0.0000000000
        71         4  OAC       LPO21           2.6981365712        3.7595900040       -2.6461373431  OAC       2               0.0000000000
        72         4  OAC       LPO22           2.9247889760        3.3562728531       -3.1137320947  OAC       2               0.0000000000
        73         5  IM1       C1             -0.3931170319       -1.5340478099        2.9432264942  IM1       1               0.0000000000
        74         5  IM1       DC1            -0.4027033531       -1.5576195841        2.9570972748  IM1       1               0.0000000000
        75         5  IM1       H1             -1.0060369854       -2.4330041285        2.7184428903  IM1       1               0.0000000000
        76         5  IM1       H2              0.0151808046       -1.5409499181        3.9764574643  IM1       1               0.0000000000
        77         5  IM1       H3              0.4238585978       -1.4658162315        2.1934156689  IM1       1               0.0000000000
        78         5  IM1       N1             -1.1344627599       -0.3833594614        2.7008780400  IM1       1               0.0000000000
        79         5  IM1       DN1            -1.1229654071       -0.3919991786        2.7076166754  IM1       1               0.0000000000
        80         5  IM1       C2             -2.4146905558       -0.2237967878        3.0778655243  IM1       1               0.0000000000
        81         5  IM1       DC2            -2.3844827898       -0.2342693759        3.0997154985  IM1       1               0.0000000000
        82         5  IM1       H4             -3.0967377764       -1.0465285186        3.2534020959  IM1       1               0.0000000000
        83         5  IM1       C3             -2.6998327379        1.0884454581        2.7893649306  IM1       1               0.0000000000
        84         5  IM1       DC3            -2.6874511988        1.0969503251        2.8048189260  IM1       1               0.0000000000
        85         5  IM1       H5             -3.5444474260        1.6910852328        3.0997523184  IM1       1               0.0000000000
        86         5  IM1       C4             -0.7262632972        0.8340033021        2.2475176691  IM1       1               0.0000000000
        87         5  IM1       DC4            -0.7425736229        0.8315272917        2.2673772351  IM1       1               0.0000000000
        88         5  IM1       H6              0.2290815923        1.0935190904        1.7913732865  IM1       1               0.0000000000
        89         5  IM1       N2             -1.6549346914        1.7499868667        2.3195800616  IM1       1               0.0000000000
        90         5  IM1       DN2            -1.6553188513        1.7645250470        2.3237293283  IM1       1               0.0000000000
        91         5  IM1       H7             -1.5498834895        2.7432028782        2.2697182571  IM1       1               0.0000000000
        92         5  IM1       LPN21          -1.6335068000        2.0401374360        2.2464124964  IM1       1               0.0000000000
        93         6  HOAC      C1             -2.8060305395       -1.6375424066       -2.3318994547  HOAC      1               0.0000000000
        94         6  HOAC      DC1            -2.8041693841       -1.6496731337       -2.3339412253  HOAC      1               0.0000000000
        95         6  HOAC      C2             -2.9973527540       -2.7621798362       -3.1109874681  HOAC      1               0.0000000000
        96         6  HOAC      DC2            -2.9924144036       -2.7417092712       -3.0914719174  HOAC      1               0.0000000000
        97         6  HOAC      H1             -2.1232407636       -2.9368292720       -3.7741215458  HOAC      1               0.0000000000
        98         6  HOAC      H2             -3.9005365200       -2.7173054717       -3.7564070037  HOAC      1               0.0000000000
        99         6  HOAC      H3             -3.1254541822       -3.4774629147       -2.2705821244  HOAC      1               0.0000000000
       100         6  HOAC      O1             -3.6875004223       -0.8497843055       -2.2204494922  HOAC      1               0.0000000000
       101         6  HOAC      DO1            -3.6513676901       -0.8604649900       -2.2241064709  HOAC      1               0.0000000000
       102         6  HOAC      O2             -1.6395105055       -1.5877811513       -1.6380123049  HOAC      1               0.0000000000
       103         6  HOAC      DO2            -1.6267570291       -1.5818449568       -1.6654565255  HOAC      1               0.0000000000
       104         6  HOAC      H              -1.8065877007       -0.9469968304       -0.9305932883  HOAC      1               0.0000000000
       105         6  HOAC      LPO11          -3.5316733385       -0.6966103266       -2.0148876957  HOAC      1               0.0000000000
       106         6  HOAC      LPO12          -3.8511008635       -0.9960113365       -2.4250284526  HOAC      1               0.0000000000
       107         6  HOAC      LPO21          -1.6350107091       -1.8284426826       -1.3839222044  HOAC      1               0.0000000000
       108         6  HOAC      LPO22          -1.4249834897       -1.3456559075       -1.7716293916  HOAC      1               0.0000000000
