*.    Packmol generated pdb file  
*.    Home-Page: http://m3g.iqm.unicamp.br/packmol 
*.  
105  
    1    1 IM1H C1     0.58100   1.78400  -3.16600 IM1H        0.00000
    2    1 IM1H DC1    0.56200   1.78600  -3.16900 IM1H        0.00000
    3    1 IM1H H1     0.85800   2.34000  -2.24500 IM1H        0.00000
    4    1 IM1H H2     1.15900   2.17200  -4.03200 IM1H        0.00000
    5    1 IM1H H3     0.79400   0.70200  -3.02900 IM1H        0.00000
    6    1 IM1H N1    -0.85500   1.97600  -3.42600 IM1H        0.00000
    7    1 IM1H DN1   -0.87100   1.97700  -3.42900 IM1H        0.00000
    8    1 IM1H C2    -1.47700   3.18100  -3.64400 IM1H        0.00000
    9    1 IM1H DC2   -1.47200   3.16200  -3.64100 IM1H        0.00000
   10    1 IM1H H4    -0.95000   4.02800  -3.63500 IM1H        0.00000
   11    1 IM1H C3    -2.81700   2.94100  -3.84700 IM1H        0.00000
   12    1 IM1H DC3   -2.81400   2.93800  -3.84600 IM1H        0.00000
   13    1 IM1H H5    -3.57900   3.56200  -4.03300 IM1H        0.00000
   14    1 IM1H C4    -1.79200   1.02300  -3.49500 IM1H        0.00000
   15    1 IM1H DC4   -1.77700   1.03500  -3.49300 IM1H        0.00000
   16    1 IM1H H6    -1.61100   0.04400  -3.37200 IM1H        0.00000
   17    1 IM1H N2    -2.99500   1.58200  -3.75000 IM1H        0.00000
   18    1 IM1H DN2   -2.99300   1.58100  -3.74900 IM1H        0.00000
   19    1 IM1H H7    -3.88000   1.08000  -3.85100 IM1H        0.00000
   20    2 IM1H C1     2.01500  -3.20500   2.41100 IM1H        0.00000
   21    2 IM1H DC1    2.01500  -3.20500   2.39200 IM1H        0.00000
   22    2 IM1H H1     1.24300  -3.93300   2.73900 IM1H        0.00000
   23    2 IM1H H2     1.75400  -2.18700   2.77400 IM1H        0.00000
   24    2 IM1H H3     3.00600  -3.50200   2.81400 IM1H        0.00000
   25    2 IM1H N1     2.06200  -3.19000   0.94000 IM1H        0.00000
   26    2 IM1H DN1    2.06400  -3.18900   0.92400 IM1H        0.00000
   27    2 IM1H C2     1.01900  -2.86700   0.10700 IM1H        0.00000
   28    2 IM1H DC2    1.03700  -2.87200   0.11400 IM1H        0.00000
   29    2 IM1H H4     0.13200  -2.61400   0.48600 IM1H        0.00000
   30    2 IM1H C3     1.46200  -2.97100  -1.19300 IM1H        0.00000
   31    2 IM1H DC3    1.46400  -2.97200  -1.19000 IM1H        0.00000
   32    2 IM1H H5     0.99600  -2.81700  -2.06400 IM1H        0.00000
   33    2 IM1H C4     3.11600  -3.48200   0.16900 IM1H        0.00000
   34    2 IM1H DC4    3.10300  -3.47900   0.18300 IM1H        0.00000
   35    2 IM1H H6     4.01600  -3.75300   0.52200 IM1H        0.00000
   36    2 IM1H N2     2.77900  -3.35800  -1.13300 IM1H        0.00000
   37    2 IM1H DN2    2.77900  -3.35800  -1.13000 IM1H        0.00000
   38    2 IM1H H7     3.39700  -3.52300  -1.93000 IM1H        0.00000
   39    3 OAC  C1     3.13400  -0.08800   1.38600 OAC         0.00000
   40    3 OAC  DC1    3.14000  -0.08600   1.39400 OAC         0.00000
   41    3 OAC  C2     3.22400   0.92600   2.47500 OAC         0.00000
   42    3 OAC  DC2    3.21600   0.91200   2.45300 OAC         0.00000
   43    3 OAC  H1     3.39100   1.93200   2.03700 OAC         0.00000
   44    3 OAC  H2     4.06500   0.68600   3.16000 OAC         0.00000
   45    3 OAC  H3     2.27700   0.93600   3.05500 OAC         0.00000
   46    3 OAC  O1     3.86700  -1.05700   1.24000 OAC         0.00000
   47    3 OAC  DO1    3.83700  -1.04800   1.21500 OAC         0.00000
   48    3 OAC  O2     2.10600   0.19300   0.53700 OAC         0.00000
   49    3 OAC  DO2    2.10700   0.20500   0.55000 OAC         0.00000
   50    3 OAC  H      2.10300  -0.50200  -0.14600 OAC         0.00000
   51    3 OAC  LPO1   3.71700  -1.14000   0.99400 OAC         0.00000
   52    3 OAC  LPO1   4.02500  -0.98200   1.48400 OAC         0.00000
   53    3 OAC  LPO2   1.80800   0.04400   0.64700 OAC         0.00000
   54    3 OAC  LPO2   2.21100   0.40400   0.27800 OAC         0.00000
   55    4 OAC  C1     2.99600   2.82800  -2.05500 OAC         0.00000
   56    4 OAC  DC1    2.99100   2.82500  -2.04700 OAC         0.00000
   57    4 OAC  C2     2.36700   3.35500  -0.81000 OAC         0.00000
   58    4 OAC  DC2    2.38100   3.35300  -0.83400 OAC         0.00000
   59    4 OAC  H1     3.12700   3.89400  -0.20700 OAC         0.00000
   60    4 OAC  H2     1.95000   2.52300  -0.20400 OAC         0.00000
   61    4 OAC  H3     1.54800   4.05700  -1.07300 OAC         0.00000
   62    4 OAC  O1     3.05800   1.65300  -2.39000 OAC         0.00000
   63    4 OAC  DO1    3.07300   1.68300  -2.41100 OAC         0.00000
   64    4 OAC  O2     3.51300   3.83800  -2.80900 OAC         0.00000
   65    4 OAC  DO2    3.50500   3.84500  -2.79400 OAC         0.00000
   66    4 OAC  H      3.90600   3.42800  -3.60100 OAC         0.00000
   67    4 OAC  LPO1   3.20400   1.72700  -2.64200 OAC         0.00000
   68    4 OAC  LPO1   2.91300   1.56800  -2.14100 OAC         0.00000
   69    4 OAC  LPO2   3.27300   3.96500  -3.03100 OAC         0.00000
   70    4 OAC  LPO2   3.84400   3.90600  -2.71800 OAC         0.00000
   71    5 IM1  C1    -0.67300  -1.41000   3.20800 IM1         0.00000
   72    5 IM1  DC1   -0.69100  -1.39800   3.21200 IM1         0.00000
   73    5 IM1  H1    -1.36700  -2.27900   3.21500 IM1         0.00000
   74    5 IM1  H2     0.08000  -1.51200   4.02200 IM1         0.00000
   75    5 IM1  H3    -0.17200  -1.32500   2.21800 IM1         0.00000
   76    5 IM1  N1    -1.44500  -0.18400   3.44400 IM1         0.00000
   77    5 IM1  DN1   -1.45600  -0.14300   3.44900 IM1         0.00000
   78    5 IM1  C2    -2.80700  -0.16100   3.63600 IM1         0.00000
   79    5 IM1  DC2   -2.77700  -0.13800   3.63400 IM1         0.00000
   80    5 IM1  H4    -3.45000  -1.03200   3.63600 IM1         0.00000
   81    5 IM1  C3    -3.12400   1.15400   3.81600 IM1         0.00000
   82    5 IM1  DC3   -3.10100   1.13900   3.81200 IM1         0.00000
   83    5 IM1  H5    -4.09500   1.60000   3.99800 IM1         0.00000
   84    5 IM1  C4    -0.90200   1.03900   3.49400 IM1         0.00000
   85    5 IM1  DC4   -0.91000   1.01800   3.49300 IM1         0.00000
   86    5 IM1  H6     0.14900   1.30500   3.37400 IM1         0.00000
   87    5 IM1  N2    -1.93600   1.86500   3.72400 IM1         0.00000
   88    5 IM1  DN2   -1.93300   1.84000   3.72100 IM1         0.00000
   89    5 IM1  H7    -1.86800   2.86200   3.81700 IM1         0.00000
   90    6 HOAC C1    -3.00900  -1.99800  -2.71300 HOAC        0.00000
   91    6 HOAC DC1   -3.01400  -2.00300  -2.71900 HOAC        0.00000
   92    6 HOAC C2    -3.16900  -3.36700  -3.28100 HOAC        0.00000
   93    6 HOAC DC2   -3.16000  -3.34600  -3.26600 HOAC        0.00000
   94    6 HOAC H1    -2.23400  -3.66900  -3.79900 HOAC        0.00000
   95    6 HOAC H2    -4.00800  -3.39000  -4.00800 HOAC        0.00000
   96    6 HOAC H3    -3.37900  -4.08900  -2.46300 HOAC        0.00000
   97    6 HOAC O1    -3.68900  -1.01900  -2.98700 HOAC        0.00000
   98    6 HOAC DO1   -3.65900  -1.01900  -2.96200 HOAC        0.00000
   99    6 HOAC O2    -1.98200  -1.95500  -1.81800 HOAC        0.00000
  100    6 HOAC DO2   -1.98400  -1.97100  -1.82500 HOAC        0.00000
  101    6 HOAC H     -1.93200  -1.03900  -1.48800 HOAC        0.00000
  102    6 HOAC LPO1  -3.53100  -0.84900  -2.79800 HOAC        0.00000
  103    6 HOAC LPO1  -3.85400  -1.18100  -3.18000 HOAC        0.00000
  104    6 HOAC LPO2  -2.09300  -2.03300  -1.49500 HOAC        0.00000
  105    6 HOAC LPO2  -1.67900  -1.88100  -1.97800 HOAC        0.00000
