*.    Packmol generated pdb file  
*.    Home-Page: http://m3g.iqm.unicamp.br/packmol 
*.  
190  
    1    1 IM1H C1     1.40200  -1.98300   2.40200 IM1H        0.00000
    2    1 IM1H DC1    1.39800  -1.98700   2.38400 IM1H        0.00000
    3    1 IM1H H1     2.13300  -1.15000   2.46900 IM1H        0.00000
    4    1 IM1H H2     1.83500  -2.90400   2.84800 IM1H        0.00000
    5    1 IM1H H3     0.47100  -1.70900   2.94200 IM1H        0.00000
    6    1 IM1H N1     1.09500  -2.23800   0.98500 IM1H        0.00000
    7    1 IM1H DN1    1.09100  -2.24100   0.97000 IM1H        0.00000
    8    1 IM1H C2     2.00200  -2.60100   0.02100 IM1H        0.00000
    9    1 IM1H DC2    1.98600  -2.59600   0.03100 IM1H        0.00000
   10    1 IM1H H4     2.96600  -2.71500   0.25300 IM1H        0.00000
   11    1 IM1H C3     1.32600  -2.74400  -1.17000 IM1H        0.00000
   12    1 IM1H DC3    1.32500  -2.74300  -1.16700 IM1H        0.00000
   13    1 IM1H H5     1.64500  -2.99600  -2.08500 IM1H        0.00000
   14    1 IM1H C4    -0.10500  -2.16200   0.39900 IM1H        0.00000
   15    1 IM1H DC4   -0.08900  -2.16200   0.41000 IM1H        0.00000
   16    1 IM1H H6    -0.95200  -1.91400   0.87700 IM1H        0.00000
   17    1 IM1H N2     0.00600  -2.46400  -0.91300 IM1H        0.00000
   18    1 IM1H DN2    0.00700  -2.46400  -0.91000 IM1H        0.00000
   19    1 IM1H H7    -0.75800  -2.48100  -1.59100 IM1H        0.00000
   20    2 IM1H C1     2.20200   2.09400   1.36000 IM1H        0.00000
   21    2 IM1H DC1    2.19200   2.09600   1.34400 IM1H        0.00000
   22    2 IM1H H1     2.83000   2.99800   1.50900 IM1H        0.00000
   23    2 IM1H H2     2.85000   1.19800   1.24200 IM1H        0.00000
   24    2 IM1H H3     1.52900   1.95600   2.23300 IM1H        0.00000
   25    2 IM1H N1     1.39900   2.26600   0.13900 IM1H        0.00000
   26    2 IM1H DN1    1.38900   2.26700   0.12600 IM1H        0.00000
   27    2 IM1H C2     1.89400   2.45900  -1.12700 IM1H        0.00000
   28    2 IM1H DC2    1.88200   2.45600  -1.11200 IM1H        0.00000
   29    2 IM1H H4     2.87800   2.49300  -1.28300 IM1H        0.00000
   30    2 IM1H C3     0.82700   2.57500  -1.99100 IM1H        0.00000
   31    2 IM1H DC3    0.82700   2.57500  -1.98700 IM1H        0.00000
   32    2 IM1H H5     0.79100   2.72200  -2.98000 IM1H        0.00000
   33    2 IM1H C4     0.06300   2.26300   0.05100 IM1H        0.00000
   34    2 IM1H DC4    0.08200   2.26300   0.05500 IM1H        0.00000
   35    2 IM1H H6    -0.55400   2.14000   0.83300 IM1H        0.00000
   36    2 IM1H N2    -0.31200   2.45000  -1.23300 IM1H        0.00000
   37    2 IM1H DN2   -0.31000   2.45000  -1.23100 IM1H        0.00000
   38    2 IM1H H7    -1.27400   2.49000  -1.57700 IM1H        0.00000
   39    3 IM1H C1    -0.88000   1.42400   2.11000 IM1H        0.00000
   40    3 IM1H DC1   -0.88100   1.40500   2.11400 IM1H        0.00000
   41    3 IM1H H1    -1.32900   1.97200   2.96600 IM1H        0.00000
   42    3 IM1H H2    -1.44600   1.64500   1.17900 IM1H        0.00000
   43    3 IM1H H3     0.18100   1.72900   1.98400 IM1H        0.00000
   44    3 IM1H N1    -0.95100  -0.02200   2.37900 IM1H        0.00000
   45    3 IM1H DN1   -0.95100  -0.03700   2.38200 IM1H        0.00000
   46    3 IM1H C2    -2.10000  -0.74400   2.58600 IM1H        0.00000
   47    3 IM1H DC2   -2.08200  -0.73800   2.58400 IM1H        0.00000
   48    3 IM1H H4    -2.99000  -0.29300   2.56100 IM1H        0.00000
   49    3 IM1H C3    -1.74700  -2.05700   2.80300 IM1H        0.00000
   50    3 IM1H DC3   -1.74500  -2.05400   2.80200 IM1H        0.00000
   51    3 IM1H H5    -2.30200  -2.86900   2.98800 IM1H        0.00000
   52    3 IM1H C4     0.07800  -0.87200   2.46700 IM1H        0.00000
   53    3 IM1H DC4    0.06600  -0.85800   2.46500 IM1H        0.00000
   54    3 IM1H H6     1.04000  -0.60700   2.35600 IM1H        0.00000
   55    3 IM1H N2    -0.37700  -2.11800   2.72500 IM1H        0.00000
   56    3 IM1H DN2   -0.37700  -2.11500   2.72400 IM1H        0.00000
   57    3 IM1H H7     0.19900  -2.95400   2.84000 IM1H        0.00000
   58    4 IM1H C1    -2.18100  -1.51100  -1.45900 IM1H        0.00000
   59    4 IM1H DC1   -2.18500  -1.49500  -1.44900 IM1H        0.00000
   60    4 IM1H H1    -3.00200  -2.24100  -1.29100 IM1H        0.00000
   61    4 IM1H H2    -1.21400  -1.94500  -1.12800 IM1H        0.00000
   62    4 IM1H H3    -2.12400  -1.25200  -2.53800 IM1H        0.00000
   63    4 IM1H N1    -2.45400  -0.29700  -0.67200 IM1H        0.00000
   64    4 IM1H DN1   -2.45700  -0.28300  -0.66500 IM1H        0.00000
   65    4 IM1H C2    -2.58800  -0.23800   0.69300 IM1H        0.00000
   66    4 IM1H DC2   -2.58700  -0.23400   0.67400 IM1H        0.00000
   67    4 IM1H H4    -2.50200  -1.06600   1.24300 IM1H        0.00000
   68    4 IM1H C3    -2.83700   1.07000   1.04300 IM1H        0.00000
   69    4 IM1H DC3   -2.83600   1.06800   1.04000 IM1H        0.00000
   70    4 IM1H H5    -2.98900   1.49800   1.93400 IM1H        0.00000
   71    4 IM1H C4    -2.61500   0.94500  -1.14500 IM1H        0.00000
   72    4 IM1H DC4   -2.61300   0.92600  -1.14100 IM1H        0.00000
   73    4 IM1H H6    -2.56600   1.19000  -2.11700 IM1H        0.00000
   74    4 IM1H N2    -2.85000   1.79700  -0.12300 IM1H        0.00000
   75    4 IM1H DN2   -2.84900   1.79400  -0.12400 IM1H        0.00000
   76    4 IM1H H7    -3.00900   2.80300  -0.20600 IM1H        0.00000
   77    5 IM1H C1     0.61600  -1.09300   2.23300 IM1H        0.00000
   78    5 IM1H DC1    0.62100  -1.09800   2.21500 IM1H        0.00000
   79    5 IM1H H1     0.81700  -0.01200   2.38900 IM1H        0.00000
   80    5 IM1H H2     1.24600  -1.69900   2.92000 IM1H        0.00000
   81    5 IM1H H3    -0.45700  -1.30700   2.42400 IM1H        0.00000
   82    5 IM1H N1     0.95100  -1.44600   0.84400 IM1H        0.00000
   83    5 IM1H DN1    0.95400  -1.45000   0.82900 IM1H        0.00000
   84    5 IM1H C2     2.18700  -1.31700   0.25800 IM1H        0.00000
   85    5 IM1H DC2    2.16800  -1.32000   0.26200 IM1H        0.00000
   86    5 IM1H H4     2.95600  -0.95700   0.78100 IM1H        0.00000
   87    5 IM1H C3     2.09000  -1.75100  -1.04400 IM1H        0.00000
   88    5 IM1H DC3    2.08800  -1.75100  -1.04200 IM1H        0.00000
   89    5 IM1H H5     2.77200  -1.80800  -1.77400 IM1H        0.00000
   90    5 IM1H C4     0.12100  -1.94800  -0.07800 IM1H        0.00000
   91    5 IM1H DC4    0.13000  -1.94100  -0.06300 IM1H        0.00000
   92    5 IM1H H6    -0.85000  -2.14400   0.08400 IM1H        0.00000
   93    5 IM1H N2     0.78800  -2.14300  -1.23700 IM1H        0.00000
   94    5 IM1H DN2    0.78700  -2.14200  -1.23400 IM1H        0.00000
   95    5 IM1H H7     0.39000  -2.51600  -2.10100 IM1H        0.00000
   96    6 IM1H C1    -1.38100   2.10900   2.17900 IM1H        0.00000
   97    6 IM1H DC1   -1.36600   2.09900   2.18200 IM1H        0.00000
   98    6 IM1H H1    -1.31900   2.58100   1.17500 IM1H        0.00000
   99    6 IM1H H2    -1.45200   2.89400   2.96300 IM1H        0.00000
  100    6 IM1H H3    -2.27400   1.45000   2.22900 IM1H        0.00000
  101    6 IM1H N1    -0.16500   1.31300   2.40900 IM1H        0.00000
  102    6 IM1H DN1   -0.15200   1.30400   2.41200 IM1H        0.00000
  103    6 IM1H C2     1.12000   1.79600   2.42100 IM1H        0.00000
  104    6 IM1H DC2    1.10400   1.78500   2.42200 IM1H        0.00000
  105    6 IM1H H4     1.29500   2.76600   2.26400 IM1H        0.00000
  106    6 IM1H C3     1.97100   0.74200   2.66800 IM1H        0.00000
  107    6 IM1H DC3    1.96800   0.74300   2.66800 IM1H        0.00000
  108    6 IM1H H5     2.96800   0.70300   2.75000 IM1H        0.00000
  109    6 IM1H C4    -0.10100  -0.00300   2.64500 IM1H        0.00000
  110    6 IM1H DC4   -0.10500   0.01600   2.64100 IM1H        0.00000
  111    6 IM1H H6    -0.90100  -0.60700   2.69100 IM1H        0.00000
  112    6 IM1H N2     1.18700  -0.37700   2.80600 IM1H        0.00000
  113    6 IM1H DN2    1.18500  -0.37500   2.80600 IM1H        0.00000
  114    6 IM1H H7     1.51600  -1.32600   2.99700 IM1H        0.00000
  115    7 IM1H C1    -0.89100  -1.68700   1.42900 IM1H        0.00000
  116    7 IM1H DC1   -0.89500  -1.69000   1.41100 IM1H        0.00000
  117    7 IM1H H1    -1.70500  -2.16300   2.01800 IM1H        0.00000
  118    7 IM1H H2    -0.85500  -0.59700   1.64400 IM1H        0.00000
  119    7 IM1H H3     0.08300  -2.15200   1.69200 IM1H        0.00000
  120    7 IM1H N1    -1.16200  -1.88300  -0.00400 IM1H        0.00000
  121    7 IM1H DN1   -1.16400  -1.88600  -0.02000 IM1H        0.00000
  122    7 IM1H C2    -2.27300  -1.44100  -0.67900 IM1H        0.00000
  123    7 IM1H DC2   -2.25600  -1.44900  -0.67400 IM1H        0.00000
  124    7 IM1H H4    -2.98700  -0.93800  -0.19800 IM1H        0.00000
  125    7 IM1H C3    -2.15300  -1.82200  -1.99700 IM1H        0.00000
  126    7 IM1H DC3   -2.15000  -1.82200  -1.99400 IM1H        0.00000
  127    7 IM1H H5    -2.75600  -1.68200  -2.78300 IM1H        0.00000
  128    7 IM1H C4    -0.38200  -2.51700  -0.88800 IM1H        0.00000
  129    7 IM1H DC4   -0.39100  -2.50900  -0.87300 IM1H        0.00000
  130    7 IM1H H6     0.49900  -2.94100  -0.66100 IM1H        0.00000
  131    7 IM1H N2    -0.96100  -2.49500  -2.10800 IM1H        0.00000
  132    7 IM1H DN2   -0.96000  -2.49500  -2.10500 IM1H        0.00000
  133    7 IM1H H7    -0.57700  -2.90700  -2.96100 IM1H        0.00000
  134    8 IM1H C1     1.52700  -0.39800  -1.28300 IM1H        0.00000
  135    8 IM1H DC1    1.51200  -0.38800  -1.29100 IM1H        0.00000
  136    8 IM1H H1     1.79200   0.04600  -0.30000 IM1H        0.00000
  137    8 IM1H H2     2.39200  -0.32800  -1.97700 IM1H        0.00000
  138    8 IM1H H3     1.24100  -1.46300  -1.14900 IM1H        0.00000
  139    8 IM1H N1     0.39500   0.35000  -1.85500 IM1H        0.00000
  140    8 IM1H DN1    0.38200   0.35700  -1.86100 IM1H        0.00000
  141    8 IM1H C2     0.38800   1.68900  -2.15700 IM1H        0.00000
  142    8 IM1H DC2    0.38400   1.67000  -2.15400 IM1H        0.00000
  143    8 IM1H H4     1.19800   2.24700  -1.99100 IM1H        0.00000
  144    8 IM1H C3    -0.85000   2.00600  -2.67000 IM1H        0.00000
  145    8 IM1H DC3   -0.84800   2.00300  -2.66900 IM1H        0.00000
  146    8 IM1H H5    -1.22700   2.87300  -2.99800 IM1H        0.00000
  147    8 IM1H C4    -0.80800  -0.14000  -2.17700 IM1H        0.00000
  148    8 IM1H DC4   -0.79100  -0.13600  -2.17100 IM1H        0.00000
  149    8 IM1H H6    -1.07700  -1.10000  -2.05900 IM1H        0.00000
  150    8 IM1H N2    -1.58600   0.84600  -2.67500 IM1H        0.00000
  151    8 IM1H DN2   -1.58400   0.84500  -2.67400 IM1H        0.00000
  152    8 IM1H H7    -2.55000   0.74400  -2.99700 IM1H        0.00000
  153    9 IM1H C1    -2.37300   0.26900   0.03800 IM1H        0.00000
  154    9 IM1H DC1   -2.35500   0.27300   0.03500 IM1H        0.00000
  155    9 IM1H H1    -2.79100   0.97800   0.78400 IM1H        0.00000
  156    9 IM1H H2    -2.44900  -0.77200   0.42000 IM1H        0.00000
  157    9 IM1H H3    -2.93100   0.35800  -0.91800 IM1H        0.00000
  158    9 IM1H N1    -0.95400   0.59300  -0.18500 IM1H        0.00000
  159    9 IM1H DN1   -0.93900   0.59600  -0.18800 IM1H        0.00000
  160    9 IM1H C2     0.03000   0.58600   0.77200 IM1H        0.00000
  161    9 IM1H DC2    0.02000   0.58700   0.75500 IM1H        0.00000
  162    9 IM1H H4    -0.18600   0.34700   1.71500 IM1H        0.00000
  163    9 IM1H C3     1.21500   0.94300   0.16900 IM1H        0.00000
  164    9 IM1H DC3    1.21200   0.94200   0.16700 IM1H        0.00000
  165    9 IM1H H5     2.14000   1.04700   0.53800 IM1H        0.00000
  166    9 IM1H C4    -0.38500   0.94400  -1.34400 IM1H        0.00000
  167    9 IM1H DC4   -0.39600   0.93900  -1.32900 IM1H        0.00000
  168    9 IM1H H6    -0.88000   1.02800  -2.21300 IM1H        0.00000
  169    9 IM1H N2     0.93500   1.16400  -1.15800 IM1H        0.00000
  170    9 IM1H DN2    0.93200   1.16300  -1.15800 IM1H        0.00000
  171    9 IM1H H7     1.60300   1.44400  -1.87900 IM1H        0.00000
  172   10 IM1H C1     2.05400   1.43100  -2.02700 IM1H        0.00000
  173   10 IM1H DC1    2.04400   1.41500  -2.02700 IM1H        0.00000
  174   10 IM1H H1     2.99300   1.27600  -2.59900 IM1H        0.00000
  175   10 IM1H H2     2.29100   1.71100  -0.97800 IM1H        0.00000
  176   10 IM1H H3     1.45400   2.23600  -2.50100 IM1H        0.00000
  177   10 IM1H N1     1.28400   0.17600  -2.02300 IM1H        0.00000
  178   10 IM1H DN1    1.27500   0.16300  -2.02300 IM1H        0.00000
  179   10 IM1H C2     1.71100  -1.02600  -1.51500 IM1H        0.00000
  180   10 IM1H DC2    1.70100  -1.01100  -1.52300 IM1H        0.00000
  181   10 IM1H H4     2.61600  -1.10500  -1.10200 IM1H        0.00000
  182   10 IM1H C3     0.70800  -1.95000  -1.70200 IM1H        0.00000
  183   10 IM1H DC3    0.70800  -1.94600  -1.70200 IM1H        0.00000
  184   10 IM1H H5     0.65100  -2.92100  -1.46600 IM1H        0.00000
  185   10 IM1H C4     0.05000  -0.00800  -2.50700 IM1H        0.00000
  186   10 IM1H DC4    0.06700  -0.00300  -2.50100 IM1H        0.00000
  187   10 IM1H H6    -0.50100   0.71200  -2.93800 IM1H        0.00000
  188   10 IM1H N2    -0.32600  -1.29300  -2.32500 IM1H        0.00000
  189   10 IM1H DN2   -0.32400  -1.29100  -2.32500 IM1H        0.00000
  190   10 IM1H H7    -1.22100  -1.70100  -2.60300 IM1H        0.00000
