*~~~~~~~~~~~~~~~~~~~~~~~~~~~~~~~~~~~~~~~~~~~~~~~~~~~~~~~~~~~~~~~~~~~~~~~
*~ MINIMIZATION OF PACKMOL STRUCTURE
*~~~~~~~~~~~~~~~~~~~~~~~~~~~~~~~~~~~~~~~~~~~~~~~~~~~~~~~~~~~~~~~~~~~~~~~
*  DATE:    10/ 7/22     13:12:14      CREATED BY USER: marta
*
       200  EXT
         1         1  IM1H      C1              1.4083893104       -2.0123405640        2.3306176157  IM1H      1               0.0000000000
         2         1  IM1H      DC1             1.4019998662       -1.9829998348        2.4020005688  IM1H      1               0.0000000000
         3         1  IM1H      H1              2.1174516366       -1.1679948617        2.4671165281  IM1H      1               0.0000000000
         4         1  IM1H      H2              1.8331999778       -2.9001580412        2.8460174839  IM1H      1               0.0000000000
         5         1  IM1H      H3              0.5110778711       -1.7225278909        2.9181223365  IM1H      1               0.0000000000
         6         1  IM1H      N1              1.1058217886       -2.2973059518        0.9955507281  IM1H      1               0.0000000000
         7         1  IM1H      DN1             1.0950000787       -2.2380000885        0.9850001623  IM1H      1               0.0000000000
         8         1  IM1H      C2              1.9610101908       -2.5960956679        0.0111407227  IM1H      1               0.0000000000
         9         1  IM1H      DC2             2.0019999801       -2.6010000897        0.0209998684  IM1H      1               0.0000000000
        10         1  IM1H      H4              3.0070505519       -2.7198542059        0.2628794554  IM1H      1               0.0000000000
        11         1  IM1H      C3              1.4211819153       -2.8566587476       -1.1005004769  IM1H      1               0.0000000000
        12         1  IM1H      DC3             1.3259995361       -2.7440000276       -1.1699999290  IM1H      1               0.0000000000
        13         1  IM1H      H5              1.6653891224       -3.0120819802       -2.1440978414  IM1H      1               0.0000000000
        14         1  IM1H      C4             -0.0920749630       -2.2777980925        0.5192026160  IM1H      1               0.0000000000
        15         1  IM1H      DC4            -0.1050012438       -2.1620014668        0.3990029942  IM1H      1               0.0000000000
        16         1  IM1H      H6             -1.0583399324       -1.9101482294        0.8645511170  IM1H      1               0.0000000000
        17         1  IM1H      N2              0.2446369341       -2.4376546112       -1.0491320082  IM1H      1               0.0000000000
        18         1  IM1H      DN2             0.0060088174       -2.4639995474       -0.9130002741  IM1H      1               0.0000000000
        19         1  IM1H      H7             -0.6456703683       -2.4787607814       -1.5026330445  IM1H      1               0.0000000000
        20         1  IM1H      LPN21           0.1008847398       -2.3932943035       -1.3086844493  IM1H      1               0.0000000000
        21         2  IM1H      C1              2.1738356354        2.1747544869        1.2858136478  IM1H      2               0.0000000000
        22         2  IM1H      DC1             2.2020000289        2.0940004128        1.3600001032  IM1H      2               0.0000000000
        23         2  IM1H      H1              2.8506010979        3.0257470410        1.5141142911  IM1H      2               0.0000000000
        24         2  IM1H      H2              2.6744878358        1.1832976987        1.3119251695  IM1H      2               0.0000000000
        25         2  IM1H      H3              1.6317354448        2.0154255524        2.2424027310  IM1H      2               0.0000000000
        26         2  IM1H      N1              1.3989428911        2.2659306540        0.1390248887  IM1H      2               0.0000000000
        27         2  IM1H      DN1             1.3989999559        2.2660002363        0.1389998180  IM1H      2               0.0000000000
        28         2  IM1H      C2              1.8524735045        2.4548422204       -1.1203420619  IM1H      2               0.0000000000
        29         2  IM1H      DC2             1.8939997711        2.4590001035       -1.1270002217  IM1H      2               0.0000000000
        30         2  IM1H      H4              2.9213857786        2.4945005504       -1.2898789819  IM1H      2               0.0000000000
        31         2  IM1H      C3              0.7756051233        2.6080843338       -1.9454593959  IM1H      2               0.0000000000
        32         2  IM1H      DC3             0.8270004942        2.5750001717       -1.9910001910  IM1H      2               0.0000000000
        33         2  IM1H      H5              0.7894781756        2.7282031638       -3.0216879985  IM1H      2               0.0000000000
        34         2  IM1H      C4              0.0895449989        2.2682565389        0.0173747059  IM1H      2               0.0000000000
        35         2  IM1H      DC4             0.0630000564        2.2630000714        0.0509998991  IM1H      2               0.0000000000
        36         2  IM1H      H6             -0.5805395559        2.1347070862        0.8666398199  IM1H      2               0.0000000000
        37         2  IM1H      N2             -0.3223246469        2.4480492116       -1.2376183930  IM1H      2               0.0000000000
        38         2  IM1H      DN2            -0.3120001544        2.4500000694       -1.2330003133  IM1H      2               0.0000000000
        39         2  IM1H      H7             -1.2634155361        2.4895592649       -1.5732146589  IM1H      2               0.0000000000
        40         2  IM1H      LPN21          -0.6043708102        2.4517314482       -1.3397771071  IM1H      2               0.0000000000
        41         3  IM1H      C1             -0.8899708936        1.3980450710        2.0857542006  IM1H      3               0.0000000000
        42         3  IM1H      DC1            -0.8799999430        1.4239997376        2.1100002036  IM1H      3               0.0000000000
        43         3  IM1H      H1             -1.3670737567        1.9539325573        2.9210283842  IM1H      3               0.0000000000
        44         3  IM1H      H2             -1.4556209347        1.6486223757        1.1629475871  IM1H      3               0.0000000000
        45         3  IM1H      H3              0.1537801883        1.7529244344        1.9480395811  IM1H      3               0.0000000000
        46         3  IM1H      N1             -0.9666611432       -0.0171014659        2.3730911186  IM1H      3               0.0000000000
        47         3  IM1H      DN1            -0.9510001544       -0.0220002596        2.3790001165  IM1H      3               0.0000000000
        48         3  IM1H      C2             -2.0621051053       -0.7631075814        2.5868949877  IM1H      3               0.0000000000
        49         3  IM1H      DC2            -2.0999997382       -0.7440001666        2.5860001399  IM1H      3               0.0000000000
        50         3  IM1H      H4             -3.0278897360       -0.2737996609        2.5599356478  IM1H      3               0.0000000000
        51         3  IM1H      C3             -1.7242618463       -2.0222867872        2.8020542251  IM1H      3               0.0000000000
        52         3  IM1H      DC3            -1.7469996396       -2.0569999491        2.8030004544  IM1H      3               0.0000000000
        53         3  IM1H      H5             -2.3249443721       -2.9024008743        2.9956225513  IM1H      3               0.0000000000
        54         3  IM1H      C4             -0.0118615076       -0.7061667407        2.5813781838  IM1H      3               0.0000000000
        55         3  IM1H      DC4             0.0779978337       -0.8719997221        2.4670008711  IM1H      3               0.0000000000
        56         3  IM1H      H6              1.0400815886       -0.6002382460        2.3162463743  IM1H      3               0.0000000000
        57         3  IM1H      N2             -0.3722660238       -2.1293875357        2.7269042046  IM1H      3               0.0000000000
        58         3  IM1H      DN2            -0.3770002331       -2.1180003160        2.7250003676  IM1H      3               0.0000000000
        59         3  IM1H      H7              0.1936360505       -2.9462139120        2.8389288143  IM1H      3               0.0000000000
        60         3  IM1H      LPN21          -0.2092077912       -2.3809392745        2.7384686106  IM1H      3               0.0000000000
        61         4  IM1H      C1             -2.1887930121       -1.4383879639       -1.4810927574  IM1H      4               0.0000000000
        62         4  IM1H      DC1            -2.1809995483       -1.5109994297       -1.4589984837  IM1H      4               0.0000000000
        63         4  IM1H      H1             -2.9676028097       -2.2089447760       -1.2966517101  IM1H      4               0.0000000000
        64         4  IM1H      H2             -1.2510604667       -1.9265139352       -1.1394618017  IM1H      4               0.0000000000
        65         4  IM1H      H3             -2.1220973386       -1.2438716370       -2.5728968083  IM1H      4               0.0000000000
        66         4  IM1H      N1             -2.4703944785       -0.3612019017       -0.7482675287  IM1H      4               0.0000000000
        67         4  IM1H      DN1            -2.4539997933       -0.2969997126       -0.6719996297  IM1H      4               0.0000000000
        68         4  IM1H      C2             -2.6141149673       -0.1693680930        0.7187241220  IM1H      4               0.0000000000
        69         4  IM1H      DC2            -2.5879999029       -0.2380009654        0.6930002017  IM1H      4               0.0000000000
        70         4  IM1H      H4             -2.4987134328       -1.0978148117        1.2642130553  IM1H      4               0.0000000000
        71         4  IM1H      C3             -2.5924702117        1.0226543691        1.2216321048  IM1H      4               0.0000000000
        72         4  IM1H      DC3            -2.8369998851        1.0700000142        1.0430002942  IM1H      4               0.0000000000
        73         4  IM1H      H5             -3.0124608620        1.5599881772        2.0629223237  IM1H      4               0.0000000000
        74         4  IM1H      C4             -2.5922354387        0.9768539774       -1.1045097233  IM1H      4               0.0000000000
        75         4  IM1H      DC4            -2.6150000317        0.9449998295       -1.1450001478  IM1H      4               0.0000000000
        76         4  IM1H      H6             -2.5629297576        1.2033863698       -2.1703071957  IM1H      4               0.0000000000
        77         4  IM1H      N2             -2.8516449092        1.8078992884       -0.1240552396  IM1H      4               0.0000000000
        78         4  IM1H      DN2            -2.8499999777        1.7970001595       -0.1230001240  IM1H      4               0.0000000000
        79         4  IM1H      H7             -3.0073205955        2.7923752960       -0.2051235517  IM1H      4               0.0000000000
        80         4  IM1H      LPN21          -2.9412437129        2.0871541511       -0.1872119974  IM1H      4               0.0000000000
        81         5  IM1H      C1              0.6557668266       -1.1553266041        2.1846342584  IM1H      5               0.0000000000
        82         5  IM1H      DC1             0.6160023729       -1.0930007951        2.2329994475  IM1H      5               0.0000000000
        83         5  IM1H      H1              0.7744699167       -0.0612405223        2.3369701438  IM1H      5               0.0000000000
        84         5  IM1H      H2              1.2122454838       -1.6447234777        3.0123680352  IM1H      5               0.0000000000
        85         5  IM1H      H3             -0.4078467727       -1.4261031187        2.3570500082  IM1H      5               0.0000000000
        86         5  IM1H      N1              0.9403004701       -1.3866382969        0.8334587030  IM1H      5               0.0000000000
        87         5  IM1H      DN1             0.9510001456       -1.4460002024        0.8440001485  IM1H      5               0.0000000000
        88         5  IM1H      C2              2.1538411814       -1.3324619339        0.2354725824  IM1H      5               0.0000000000
        89         5  IM1H      DC2             2.1870001418       -1.3170001308        0.2579999115  IM1H      5               0.0000000000
        90         5  IM1H      H4              2.9888882582       -0.9416779745        0.8036919736  IM1H      5               0.0000000000
        91         5  IM1H      C3              2.0653660721       -1.7527568278       -1.0105881900  IM1H      5               0.0000000000
        92         5  IM1H      DC3             2.0900001076       -1.7510001688       -1.0440001519  IM1H      5               0.0000000000
        93         5  IM1H      H5              2.7999971612       -1.8102090197       -1.8042539942  IM1H      5               0.0000000000
        94         5  IM1H      C4              0.2016250132       -1.8593583942       -0.2357076745  IM1H      5               0.0000000000
        95         5  IM1H      DC4             0.1210017349       -1.9479993441       -0.0780012681  IM1H      5               0.0000000000
        96         5  IM1H      H6             -0.7656723015       -2.2245961879        0.1093100916  IM1H      5               0.0000000000
        97         5  IM1H      N2              0.8484148116       -2.1153396196       -1.1543938214  IM1H      5               0.0000000000
        98         5  IM1H      DN2             0.7880005152       -2.1430018165       -1.2369967047  IM1H      5               0.0000000000
        99         5  IM1H      H7              0.4405506701       -2.4754577389       -1.9934181251  IM1H      5               0.0000000000
       100         5  IM1H      LPN21           0.7221532597       -2.2522699392       -1.3895705807  IM1H      5               0.0000000000
       101         6  IM1H      C1             -1.4262144610        2.1563601318        2.1676861593  IM1H      6               0.0000000000
       102         6  IM1H      DC1            -1.3810001189        2.1090002051        2.1790002570  IM1H      6               0.0000000000
       103         6  IM1H      H1             -1.3173598102        2.5919835736        1.1514657685  IM1H      6               0.0000000000
       104         6  IM1H      H2             -1.6287381220        2.9033546724        2.9647459582  IM1H      6               0.0000000000
       105         6  IM1H      H3             -2.2786433598        1.4465092127        2.2293112110  IM1H      6               0.0000000000
       106         6  IM1H      N1             -0.0789736842        1.2541281835        2.5013646836  IM1H      6               0.0000000000
       107         6  IM1H      DN1            -0.1649996652        1.3130000139        2.4090003271  IM1H      6               0.0000000000
       108         6  IM1H      C2              0.9681249921        1.7387029125        2.4856520472  IM1H      6               0.0000000000
       109         6  IM1H      DC2             1.1199998219        1.7960002784        2.4210003111  IM1H      6               0.0000000000
       110         6  IM1H      H4              1.2899421611        2.7495108282        2.2675005644  IM1H      6               0.0000000000
       111         6  IM1H      C3              1.9302322864        0.7435788799        2.6646106816  IM1H      6               0.0000000000
       112         6  IM1H      DC3             1.9710000544        0.7419999989        2.6680002249  IM1H      6               0.0000000000
       113         6  IM1H      H5              3.0087666972        0.7013954286        2.7533410685  IM1H      6               0.0000000000
       114         6  IM1H      C4             -0.0794678581        0.0752058362        2.6298397849  IM1H      6               0.0000000000
       115         6  IM1H      DC4            -0.1010004618       -0.0030006429        2.6449998763  IM1H      6               0.0000000000
       116         6  IM1H      H6             -0.9147551154       -0.6221119954        2.6942062317  IM1H      6               0.0000000000
       117         6  IM1H      N2              1.2344301914       -0.3757210525        2.8942831365  IM1H      6               0.0000000000
       118         6  IM1H      DN2             1.1869999624       -0.3769999453        2.8059997685  IM1H      6               0.0000000000
       119         6  IM1H      H7              1.5209628229       -1.3281916562        2.9977181417  IM1H      6               0.0000000000
       120         6  IM1H      LPN21           1.3398374206       -0.6436432326        2.9785862888  IM1H      6               0.0000000000
       121         7  IM1H      C1             -0.8798896010       -1.6733188832        1.4763893102  IM1H      7               0.0000000000
       122         7  IM1H      DC1            -0.8910003222       -1.6870002962        1.4289999062  IM1H      7               0.0000000000
       123         7  IM1H      H1             -1.7138141634       -2.1695284461        2.0173762745  IM1H      7               0.0000000000
       124         7  IM1H      H2             -0.8541781397       -0.5757862405        1.6469238210  IM1H      7               0.0000000000
       125         7  IM1H      H3              0.0955396833       -2.1580729183        1.6951865602  IM1H      7               0.0000000000
       126         7  IM1H      N1             -1.2482064099       -1.7984083747       -0.0336165682  IM1H      7               0.0000000000
       127         7  IM1H      DN1            -1.1620002900       -1.8830003343       -0.0039999576  IM1H      7               0.0000000000
       128         7  IM1H      C2             -2.2190739584       -1.4964998503       -0.4757140970  IM1H      7               0.0000000000
       129         7  IM1H      DC2            -2.2729998569       -1.4409997888       -0.6790004849  IM1H      7               0.0000000000
       130         7  IM1H      H4             -3.0557745200       -0.8896753966       -0.1523176643  IM1H      7               0.0000000000
       131         7  IM1H      C3             -2.0777606554       -1.9590629110       -2.1048922077  IM1H      7               0.0000000000
       132         7  IM1H      DC3            -2.1529996145       -1.8220008564       -1.9970019170  IM1H      7               0.0000000000
       133         7  IM1H      H5             -2.8084418788       -1.6690042817       -2.8497814218  IM1H      7               0.0000000000
       134         7  IM1H      C4             -0.7385160161       -2.6567109292       -0.7750354880  IM1H      7               0.0000000000
       135         7  IM1H      DC4            -0.3820071950       -2.5170012881       -0.8880012169  IM1H      7               0.0000000000
       136         7  IM1H      H6              0.3219662467       -2.8914888628       -0.6836205404  IM1H      7               0.0000000000
       137         7  IM1H      N2             -0.9582307284       -2.4993922942       -2.1188218063  IM1H      7               0.0000000000
       138         7  IM1H      DN2            -0.9609998405       -2.4949999665       -2.1079997178  IM1H      7               0.0000000000
       139         7  IM1H      H7             -0.5808829876       -2.9028761244       -2.9523741330  IM1H      7               0.0000000000
       140         7  IM1H      LPN21          -0.7968631753       -2.5680825093       -2.3622189451  IM1H      7               0.0000000000
       141         8  IM1H      C1              1.5019651491       -0.3472288231       -1.2593600124  IM1H      8               0.0000000000
       142         8  IM1H      DC1             1.5269995460       -0.3979988956       -1.2830000499  IM1H      8               0.0000000000
       143         8  IM1H      H1              1.8005396352        0.0592877723       -0.2694516655  IM1H      8               0.0000000000
       144         8  IM1H      H2              2.3666774223       -0.3294388761       -1.9566958016  IM1H      8               0.0000000000
       145         8  IM1H      H3              1.2319925836       -1.4174176700       -1.1323495959  IM1H      8               0.0000000000
       146         8  IM1H      N1              0.4028959191        0.3830336708       -1.8026728031  IM1H      8               0.0000000000
       147         8  IM1H      DN1             0.3950000676        0.3500000020       -1.8550002434  IM1H      8               0.0000000000
       148         8  IM1H      C2              0.3619598089        1.6702662199       -2.1627045623  IM1H      8               0.0000000000
       149         8  IM1H      DC2             0.3879998935        1.6890001287       -2.1570004140  IM1H      8               0.0000000000
       150         8  IM1H      H4              1.2749330680        2.2254675907       -1.9862951914  IM1H      8               0.0000000000
       151         8  IM1H      C3             -0.7759845441        1.9611858168       -2.6128011308  IM1H      8               0.0000000000
       152         8  IM1H      DC3            -0.8500000505        2.0060001711       -2.6700000202  IM1H      8               0.0000000000
       153         8  IM1H      H5             -1.0774369856        2.9290178132       -2.9940053442  IM1H      8               0.0000000000
       154         8  IM1H      C4             -0.8090227977       -0.0973087063       -2.1774953823  IM1H      8               0.0000000000
       155         8  IM1H      DC4            -0.8080000693       -0.1399999635       -2.1770003832  IM1H      8               0.0000000000
       156         8  IM1H      H6             -1.0896824733       -1.1432291152       -2.0534766462  IM1H      8               0.0000000000
       157         8  IM1H      N2             -1.5963319195        0.8448203061       -2.6784296391  IM1H      8               0.0000000000
       158         8  IM1H      DN2            -1.5859998182        0.8460001579       -2.6750000281  IM1H      8               0.0000000000
       159         8  IM1H      H7             -2.5400787692        0.7450476389       -2.9936871507  IM1H      8               0.0000000000
       160         8  IM1H      LPN21          -1.8778075782        0.8142630166       -2.7776148475  IM1H      8               0.0000000000
       161         9  IM1H      C1             -2.2804587737        0.2120479541       -0.0211947470  IM1H      9               0.0000000000
       162         9  IM1H      DC1            -2.3729997953        0.2689996538        0.0379999639  IM1H      9               0.0000000000
       163         9  IM1H      H1             -2.8481911205        1.0040626997        0.5123908856  IM1H      9               0.0000000000
       164         9  IM1H      H2             -2.4326846404       -0.8087468616        0.3900548486  IM1H      9               0.0000000000
       165         9  IM1H      H3             -2.9520009404        0.3140101917       -0.9003738085  IM1H      9               0.0000000000
       166         9  IM1H      N1             -0.9539967676        0.5930003686       -0.1849986829  IM1H      9               0.0000000000
       167         9  IM1H      DN1            -0.9540000164        0.5930000331       -0.1850000370  IM1H      9               0.0000000000
       168         9  IM1H      C2              0.0393871379        0.5963829266        0.7310204038  IM1H      9               0.0000000000
       169         9  IM1H      DC2             0.0299998897        0.5860001034        0.7720000461  IM1H      9               0.0000000000
       170         9  IM1H      H4             -0.1953761017        0.3366490082        1.7558684478  IM1H      9               0.0000000000
       171         9  IM1H      C3              1.1772375334        0.9387138328        0.1539691760  IM1H      9               0.0000000000
       172         9  IM1H      DC3             1.2149998282        0.9430000874        0.1689998532  IM1H      9               0.0000000000
       173         9  IM1H      H5              2.1777204410        1.0512387912        0.5530444660  IM1H      9               0.0000000000
       174         9  IM1H      C4             -0.3648579945        0.9412599849       -1.3055726953  IM1H      9               0.0000000000
       175         9  IM1H      DC4            -0.3849999539        0.9440000609       -1.3440002666  IM1H      9               0.0000000000
       176         9  IM1H      H6             -0.9010100655        1.0317081300       -2.2502737537  IM1H      9               0.0000000000
       177         9  IM1H      N2              0.9204691980        1.1580040401       -1.1408396391  IM1H      9               0.0000000000
       178         9  IM1H      DN2             0.9349999139        1.1640000441       -1.1580001348  IM1H      9               0.0000000000
       179         9  IM1H      H7              1.5389751380        1.4521975792       -1.8694688752  IM1H      9               0.0000000000
       180         9  IM1H      LPN21           1.1146123035        1.2403227956       -1.3542221058  IM1H      9               0.0000000000
       181        10  IM1H      C1              2.0946511950        1.4418571560       -2.0374968754  IM1H      10              0.0000000000
       182        10  IM1H      DC1             2.0539987764        1.4310001780       -2.0269997570  IM1H      10              0.0000000000
       183        10  IM1H      H1              3.0253662639        1.2705418306       -2.6195119265  IM1H      10              0.0000000000
       184        10  IM1H      H2              2.2919460409        1.7095373381       -0.9774293939  IM1H      10              0.0000000000
       185        10  IM1H      H3              1.4616980991        2.2283523703       -2.5013035775  IM1H      10              0.0000000000
       186        10  IM1H      N1              1.2975780954        0.1830268891       -2.0413411155  IM1H      10              0.0000000000
       187        10  IM1H      DN1             1.2839998816        0.1760001185       -2.0230001703  IM1H      10              0.0000000000
       188        10  IM1H      C2              1.7196586948       -1.1322497938       -1.6150981147  IM1H      10              0.0000000000
       189        10  IM1H      DC2             1.7110000443       -1.0260009853       -1.5150005703  IM1H      10              0.0000000000
       190        10  IM1H      H4              2.6615992743       -1.1086931402       -1.0811673807  IM1H      10              0.0000000000
       191        10  IM1H      C3              0.6581121716       -1.8822244263       -1.9299683868  IM1H      10              0.0000000000
       192        10  IM1H      DC3             0.7079997906       -1.9499996424       -1.7020033754  IM1H      10              0.0000000000
       193        10  IM1H      H5              0.6519453764       -2.8689418053       -1.4836055471  IM1H      10              0.0000000000
       194        10  IM1H      C4              0.0637836959       -0.0679663729       -2.5168368403  IM1H      10              0.0000000000
       195        10  IM1H      DC4             0.0499998927       -0.0079998754       -2.5070002361  IM1H      10              0.0000000000
       196        10  IM1H      H6             -0.5225007987        0.7399249550       -2.9546519767  IM1H      10              0.0000000000
       197        10  IM1H      N2             -0.3353533094       -1.2975815112       -2.3277875537  IM1H      10              0.0000000000
       198        10  IM1H      DN2            -0.3260001895       -1.2930001553       -2.3250002436  IM1H      10              0.0000000000
       199        10  IM1H      H7             -1.2110546491       -1.6964550417       -2.5999034672  IM1H      10              0.0000000000
       200        10  IM1H      LPN21          -0.6051095339       -1.4224619364       -2.3682407207  IM1H      10              0.0000000000
