*~~~~~~~~~~~~~~~~~~~~~~~~~~~~~~~~~~~~~~~~~~~~~~~~~~~~~~~~~~~~~~~~~~~~~~~
*~ MINIMIZATION OF PACKMOL STRUCTURE
*~~~~~~~~~~~~~~~~~~~~~~~~~~~~~~~~~~~~~~~~~~~~~~~~~~~~~~~~~~~~~~~~~~~~~~~
*  DATE:    10/19/23     17:14:42      CREATED BY USER: marta
*
        94  EXT
         1         1  IM1H      C1              2.0277232401        0.4930938642       -1.6577107177  IM1H      1               0.0000000000
         2         1  IM1H      DC1             2.0280222862        0.4932642049       -1.6580820387  IM1H      1               0.0000000000
         3         1  IM1H      H1              2.7831595729        0.2009146170       -2.4181502192  IM1H      1               0.0000000000
         4         1  IM1H      H2              2.5098990605        1.0898569028       -0.8541552722  IM1H      1               0.0000000000
         5         1  IM1H      H3              1.2251766756        1.0928272209       -2.1378772663  IM1H      1               0.0000000000
         6         1  IM1H      N1              1.4491304817       -0.7238424663       -1.0671122757  IM1H      1               0.0000000000
         7         1  IM1H      DN1             1.4489006820       -0.7241780914       -1.0668709010  IM1H      1               0.0000000000
         8         1  IM1H      C2              2.1021181751       -1.7004590217       -0.3973908967  IM1H      1               0.0000000000
         9         1  IM1H      DC2             2.1433111816       -1.6968870164       -0.3921175748  IM1H      1               0.0000000000
        10         1  IM1H      H4              3.1728293741       -1.6124910047       -0.2605400373  IM1H      1               0.0000000000
        11         1  IM1H      C3              1.2434146671       -2.6321706769       -0.0187360338  IM1H      1               0.0000000000
        12         1  IM1H      DC3             1.2489678358       -2.6664840747        0.0016304574  IM1H      1               0.0000000000
        13         1  IM1H      H5              1.3854723405       -3.5543326411        0.5311056973  IM1H      1               0.0000000000
        14         1  IM1H      C4              0.1928073865       -1.1118324216       -1.0657628610  IM1H      1               0.0000000000
        15         1  IM1H      DC4             0.1626941766       -1.0891478027       -1.0836866663  IM1H      1               0.0000000000
        16         1  IM1H      H6             -0.6027175517       -0.5319113415       -1.5336641471  IM1H      1               0.0000000000
        17         1  IM1H      N2              0.0014093845       -2.2734487355       -0.4385649583  IM1H      1               0.0000000000
        18         1  IM1H      DN2             0.0112407613       -2.2679296403       -0.4400235325  IM1H      1               0.0000000000
        19         1  IM1H      H7             -0.8596036762       -2.7656176201       -0.3103998357  IM1H      1               0.0000000000
        20         1  IM1H      LPN21          -0.2582925022       -2.4188639501       -0.4010237088  IM1H      1               0.0000000000
        21         2  OAC       C1             -2.2247144934       -1.9412998625       -3.4198653111  OAC       1               0.0000000000
        22         2  OAC       DC1            -2.2238426699       -1.9405051577       -3.4197503903  OAC       1               0.0000000000
        23         2  OAC       C2             -2.1064690630       -3.2818722753       -3.2955917997  OAC       1               0.0000000000
        24         2  OAC       DC2            -2.0402573756       -3.4189463469       -3.4167512713  OAC       1               0.0000000000
        25         2  OAC       H1             -2.0472374879       -3.8130137142       -2.3215787647  OAC       1               0.0000000000
        26         2  OAC       H2             -1.1939385947       -3.3499627451       -3.9256495991  OAC       1               0.0000000000
        27         2  OAC       H3             -2.5618701677       -3.9539865337       -4.0540067621  OAC       1               0.0000000000
        28         2  OAC       O1             -1.4412286117       -1.1196305820       -3.8715528443  OAC       1               0.0000000000
        29         2  OAC       DO1            -1.4398922042       -1.1179657357       -3.8729043720  OAC       1               0.0000000000
        30         2  OAC       O2             -3.4037408860       -1.5879491097       -2.8389838625  OAC       1               0.0000000000
        31         2  OAC       DO2            -3.4061905422       -1.5915283181       -2.8388814833  OAC       1               0.0000000000
        32         2  OAC       H              -3.4619349449       -0.6212581419       -2.8718931954  OAC       1               0.0000000000
        33         2  OAC       LPO11          -1.1488639458       -1.2793653861       -3.9788267671  OAC       1               0.0000000000
        34         2  OAC       LPO12          -1.5800788396       -0.7988997718       -3.8527815473  OAC       1               0.0000000000
        35         2  OAC       LPO21          -3.5649941170       -1.8719235172       -2.7130635249  OAC       1               0.0000000000
        36         2  OAC       LPO22          -3.4498872144       -1.2418176625       -2.8627228094  OAC       1               0.0000000000
        37         3  IM1       C1             -0.3375628349        0.0997336077        2.5689269744  IM1       1               0.0000000000
        38         3  IM1       DC1            -0.3364319465        0.1001217569        2.5686217964  IM1       1               0.0000000000
        39         3  IM1       H1              0.2047884791       -0.5927520804        3.2476313475  IM1       1               0.0000000000
        40         3  IM1       H2             -0.6765911358       -0.4403309044        1.6591406618  IM1       1               0.0000000000
        41         3  IM1       H3             -1.1985476809        0.5616711767        3.0977367485  IM1       1               0.0000000000
        42         3  IM1       N1              0.5784137584        1.1706482530        2.1562403114  IM1       1               0.0000000000
        43         3  IM1       DN1             0.5793831240        1.1711050265        2.1558682630  IM1       1               0.0000000000
        44         3  IM1       C2              1.8886706761        1.2603161884        2.5684783880  IM1       1               0.0000000000
        45         3  IM1       DC2             1.8891023731        1.2600884942        2.5691598304  IM1       1               0.0000000000
        46         3  IM1       H4              2.3812313417        0.5615830990        3.2333430814  IM1       1               0.0000000000
        47         3  IM1       C3              2.3808109766        2.3817132152        1.9667480604  IM1       1               0.0000000000
        48         3  IM1       DC3             2.3808788375        2.3821362410        1.9670527571  IM1       1               0.0000000000
        49         3  IM1       H5              3.3748950509        2.8067077086        2.0305095989  IM1       1               0.0000000000
        50         3  IM1       C4              0.2326499868        2.1701400133        1.3360521023  IM1       1               0.0000000000
        51         3  IM1       DC4             0.2333207410        2.1699880064        1.3358611574  IM1       1               0.0000000000
        52         3  IM1       H6             -0.7367476031        2.3389410569        0.8671443071  IM1       1               0.0000000000
        53         3  IM1       N2              1.3430136993        2.9193207367        1.2170911000  IM1       1               0.0000000000
        54         3  IM1       DN2             1.3431566426        2.9181531703        1.2178510398  IM1       1               0.0000000000
        55         3  IM1       H7              1.4188447819        3.7503666538        0.6660808183  IM1       1               0.0000000000
        56         3  IM1       LPN21           1.3569705904        3.1676945258        1.0494138323  IM1       1               0.0000000000
        57         4  HOAC      C1             -2.1017264090        2.4906288599       -3.1371848870  HOAC      1               0.0000000000
        58         4  HOAC      DC1            -2.1015100429        2.4886732199       -3.1365968877  HOAC      1               0.0000000000
        59         4  HOAC      C2             -0.8435111469        3.2315061701       -3.0733723478  HOAC      1               0.0000000000
        60         4  HOAC      DC2            -0.8316570889        3.2710432148       -3.1108383584  HOAC      1               0.0000000000
        61         4  HOAC      H1             -0.5441265735        3.6710763118       -4.0488045430  HOAC      1               0.0000000000
        62         4  HOAC      H2              0.0505457513        2.5897062816       -3.2252807609  HOAC      1               0.0000000000
        63         4  HOAC      H3             -0.7451746646        3.8195609806       -2.1359063603  HOAC      1               0.0000000000
        64         4  HOAC      O1             -2.1983208467        1.2753130007       -3.2619759330  HOAC      1               0.0000000000
        65         4  HOAC      DO1            -2.1994207756        1.2759526565       -3.2624057918  HOAC      1               0.0000000000
        66         4  HOAC      O2             -3.1052899540        3.2504121201       -2.9267057298  HOAC      1               0.0000000000
        67         4  HOAC      DO2            -3.1819219454        3.3012304294       -2.9941147072  HOAC      1               0.0000000000
        68         4  HOAC      H              -3.8897450323        2.6917857911       -3.0340735775  HOAC      1               0.0000000000
        69         4  HOAC      LPO11          -2.4954779071        1.2896866299       -3.2233614251  HOAC      1               0.0000000000
        70         4  HOAC      LPO12          -1.9019891374        1.2505551052       -3.3016567180  HOAC      1               0.0000000000
        71         4  HOAC      LPO21          -3.1900530357        3.2541102722       -2.5871449198  HOAC      1               0.0000000000
        72         4  HOAC      LPO22          -3.2098526117        3.4041689932       -3.2232280300  HOAC      1               0.0000000000
        73         5  H2O       OH2             2.9760226140       -3.0010963951       -2.8944781492  H2O       1               0.0000000000
        74         5  H2O       DOH2            3.0029464428       -3.0313950137       -2.9306011073  H2O       1               0.0000000000
        75         5  H2O       H1              3.0550530377       -2.0426063320       -2.8770826861  H2O       1               0.0000000000
        76         5  H2O       H2              2.0965148707       -3.3308807823       -2.6872102117  H2O       1               0.0000000000
        77         5  H2O       H3              3.6354579820       -3.4144305305       -2.3291892868  H2O       1               0.0000000000
        78         5  H2O       H4              3.1939491884       -3.3005803818       -3.7822106322  H2O       1               0.0000000000
        79         6  H3O       OH2             3.1889281540        3.1137895568       -2.9112044497  H3O       1               0.0000000000
        80         6  H3O       DOH2            3.2848135204        3.1674979605       -3.0105643449  H3O       1               0.0000000000
        81         6  H3O       H1              2.3380170135        2.8621310430       -2.5398961770  H3O       1               0.0000000000
        82         6  H3O       H2              3.6286193901        3.9001570606       -2.5742335646  H3O       1               0.0000000000
        83         6  H3O       H3              3.9064702588        2.4771102710       -2.9820876355  H3O       1               0.0000000000
        84         6  H3O       H4              3.1427530775        3.3894795118       -3.8315926948  H3O       1               0.0000000000
        85         7  OH        OH2            -2.5962901053        2.5651274977        2.9963684438  OH        1               0.0000000000
        86         7  OH        DOH2           -2.5975654248        2.5628857921        2.9980938041  OH        1               0.0000000000
        87         7  OH        H1             -1.6528578374        2.7131428080        2.8811354852  OH        1               0.0000000000
        88         7  OH        H2             -2.8788926977        1.8324540919        2.4408713100  OH        1               0.0000000000
        89         7  OH        H3             -2.7771594136        2.3557550220        3.9176181764  OH        1               0.0000000000
        90         7  OH        H4             -3.0794899920        3.3597450300        2.7507010699  OH        1               0.0000000000
        91         8  CLA       CLA             3.7475325954       -3.8203590481        3.5902393003  CLA       1               0.0000000000
        92         8  CLA       DCLA            3.9933228818       -3.9953059867        3.9893356158  CLA       1               0.0000000000
        93         9  SOD       SOD             3.9404050055        1.9592283196        3.9895875824  SOD       1               0.0000000000
        94         9  SOD       DSOD            3.9383899160        1.9633042713        3.9936405097  SOD       1               0.0000000000
