*    Packmol generated pdb file  
*    Home-Page: http://m3g.iqm.unicamp.br/packmol 
*  
        87  EXT
         1         1  IM1H      C1              2.0280000000        0.4930000000       -1.6580000000  IM1H      1               0.0000000000
         2         1  IM1H      DC1             2.0200000000        0.4780000000       -1.6500000000  IM1H      1               0.0000000000
         3         1  IM1H      H1              2.7830000000        0.2010000000       -2.4180000000  IM1H      1               0.0000000000
         4         1  IM1H      H2              2.5100000000        1.0900000000       -0.8540000000  IM1H      1               0.0000000000
         5         1  IM1H      H3              1.2250000000        1.0930000000       -2.1380000000  IM1H      1               0.0000000000
         6         1  IM1H      N1              1.4490000000       -0.7240000000       -1.0670000000  IM1H      1               0.0000000000
         7         1  IM1H      DN1             1.4420000000       -0.7370000000       -1.0610000000  IM1H      1               0.0000000000
         8         1  IM1H      C2              2.1440000000       -1.6970000000       -0.3920000000  IM1H      1               0.0000000000
         9         1  IM1H      DC2             2.1300000000       -1.6860000000       -0.4010000000  IM1H      1               0.0000000000
        10         1  IM1H      H4              3.1300000000       -1.6160000000       -0.2660000000  IM1H      1               0.0000000000
        11         1  IM1H      C3              1.2490000000       -2.6670000000        0.0020000000  IM1H      1               0.0000000000
        12         1  IM1H      DC3             1.2490000000       -2.6630000000        0.0010000000  IM1H      1               0.0000000000
        13         1  IM1H      H5              1.3800000000       -3.5190000000        0.5100000000  IM1H      1               0.0000000000
        14         1  IM1H      C4              0.1620000000       -1.0890000000       -1.0840000000  IM1H      1               0.0000000000
        15         1  IM1H      DC4             0.1790000000       -1.0820000000       -1.0850000000  IM1H      1               0.0000000000
        16         1  IM1H      H6             -0.5710000000       -0.5550000000       -1.5150000000  IM1H      1               0.0000000000
        17         1  IM1H      N2              0.0110000000       -2.2680000000       -0.4400000000  IM1H      1               0.0000000000
        18         1  IM1H      DN2             0.0130000000       -2.2650000000       -0.4420000000  IM1H      1               0.0000000000
        19         1  IM1H      H7             -0.8690000000       -2.7710000000       -0.3090000000  IM1H      1               0.0000000000
        20         2  OAC       C1             -2.2240000000       -1.9410000000       -3.4200000000  OAC       1               0.0000000000
        21         2  OAC       DC1            -2.2170000000       -1.9480000000       -3.4230000000  OAC       1               0.0000000000
        22         2  OAC       C2             -2.0420000000       -3.4210000000       -3.4180000000  OAC       1               0.0000000000
        23         2  OAC       DC2            -2.0520000000       -3.3960000000       -3.4140000000  OAC       1               0.0000000000
        24         2  OAC       H1             -2.0490000000       -3.7970000000       -2.3740000000  OAC       1               0.0000000000
        25         2  OAC       H2             -1.0760000000       -3.6940000000       -3.8940000000  OAC       1               0.0000000000
        26         2  OAC       H3             -2.8700000000       -3.9000000000       -3.9820000000  OAC       1               0.0000000000
        27         2  OAC       O1             -1.4400000000       -1.1180000000       -3.8730000000  OAC       1               0.0000000000
        28         2  OAC       DO1            -1.4740000000       -1.1090000000       -3.8550000000  OAC       1               0.0000000000
        29         2  OAC       O2             -3.4060000000       -1.5920000000       -2.8390000000  OAC       1               0.0000000000
        30         2  OAC       DO2            -3.4040000000       -1.6090000000       -2.8390000000  OAC       1               0.0000000000
        31         2  OAC       H              -3.4620000000       -0.6190000000       -2.8720000000  OAC       1               0.0000000000
        32         2  OAC       LPO1           -1.6220000000       -0.8940000000       -3.7940000000  OAC       1               0.0000000000
        33         2  OAC       LPO1           -1.2500000000       -1.3360000000       -3.9550000000  OAC       1               0.0000000000
        34         2  OAC       LPO2           -3.6640000000       -1.5840000000       -3.0760000000  OAC       1               0.0000000000
        35         2  OAC       LPO2           -3.3680000000       -1.5460000000       -2.4940000000  OAC       1               0.0000000000
        36         3  IM1       C1             -0.3370000000        0.1000000000        2.5690000000  IM1       1               0.0000000000
        37         3  IM1       DC1            -0.3170000000        0.1110000000        2.5690000000  IM1       1               0.0000000000
        38         3  IM1       H1              0.2050000000       -0.5940000000        3.2490000000  IM1       1               0.0000000000
        39         3  IM1       H2             -0.6770000000       -0.4410000000        1.6580000000  IM1       1               0.0000000000
        40         3  IM1       H3             -1.2000000000        0.5620000000        3.0990000000  IM1       1               0.0000000000
        41         3  IM1       N1              0.5790000000        1.1710000000        2.1560000000  IM1       1               0.0000000000
        42         3  IM1       DN1             0.5960000000        1.2050000000        2.1380000000  IM1       1               0.0000000000
        43         3  IM1       C2              1.8890000000        1.2600000000        2.5690000000  IM1       1               0.0000000000
        44         3  IM1       DC2             1.8630000000        1.2780000000        2.5470000000  IM1       1               0.0000000000
        45         3  IM1       H4              2.3810000000        0.5620000000        3.2330000000  IM1       1               0.0000000000
        46         3  IM1       C3              2.3810000000        2.3820000000        1.9670000000  IM1       1               0.0000000000
        47         3  IM1       DC3             2.3560000000        2.3680000000        1.9670000000  IM1       1               0.0000000000
        48         3  IM1       H5              3.3750000000        2.8070000000        2.0310000000  IM1       1               0.0000000000
        49         3  IM1       C4              0.2330000000        2.1700000000        1.3360000000  IM1       1               0.0000000000
        50         3  IM1       DC4             0.2380000000        2.1530000000        1.3490000000  IM1       1               0.0000000000
        51         3  IM1       H6             -0.7370000000        2.3390000000        0.8670000000  IM1       1               0.0000000000
        52         3  IM1       N2              1.3430000000        2.9180000000        1.2180000000  IM1       1               0.0000000000
        53         3  IM1       DN2             1.3360000000        2.8970000000        1.2300000000  IM1       1               0.0000000000
        54         3  IM1       H7              1.4190000000        3.7520000000        0.6650000000  IM1       1               0.0000000000
        55         4  HOAC      C1             -2.1020000000        2.4900000000       -3.1380000000  HOAC      1               0.0000000000
        56         4  HOAC      DC1            -2.0930000000        2.4890000000       -3.1380000000  HOAC      1               0.0000000000
        57         4  HOAC      C2             -0.8330000000        3.2720000000       -3.1120000000  HOAC      1               0.0000000000
        58         4  HOAC      DC2            -0.8600000000        3.2650000000       -3.1110000000  HOAC      1               0.0000000000
        59         4  HOAC      H1             -0.8310000000        4.0080000000       -3.9430000000  HOAC      1               0.0000000000
        60         4  HOAC      H2              0.0410000000        2.5970000000       -3.2240000000  HOAC      1               0.0000000000
        61         4  HOAC      H3             -0.7490000000        3.8150000000       -2.1460000000  HOAC      1               0.0000000000
        62         4  HOAC      O1             -2.1990000000        1.2760000000       -3.2630000000  HOAC      1               0.0000000000
        63         4  HOAC      DO1            -2.2300000000        1.3010000000       -3.2600000000  HOAC      1               0.0000000000
        64         4  HOAC      O2             -3.1850000000        3.3060000000       -3.0000000000  HOAC      1               0.0000000000
        65         4  HOAC      DO2            -3.1700000000        3.3150000000       -3.0000000000  HOAC      1               0.0000000000
        66         4  HOAC      H              -3.9750000000        2.7350000000       -3.0260000000  HOAC      1               0.0000000000
        67         4  HOAC      LPO1           -2.4980000000        1.2930000000       -3.2480000000  HOAC      1               0.0000000000
        68         4  HOAC      LPO1           -1.9000000000        1.2490000000       -3.2800000000  HOAC      1               0.0000000000
        69         4  HOAC      LPO2           -3.2660000000        3.3500000000       -2.6620000000  HOAC      1               0.0000000000
        70         4  HOAC      LPO2           -3.2960000000        3.4200000000       -3.3120000000  HOAC      1               0.0000000000
        71         5  H2O       OH2             3.0050000000       -3.0320000000       -2.9310000000  H2O       1               0.0000000000
        72         5  H2O       H1              3.0600000000       -1.9350000000       -2.8710000000  H2O       1               0.0000000000
        73         5  H2O       H2              1.9920000000       -3.3650000000       -2.6590000000  H2O       1               0.0000000000
        74         5  H2O       H3              3.7270000000       -3.4700000000       -2.2420000000  H2O       1               0.0000000000
        75         5  H2O       H4              3.2310000000       -3.3530000000       -3.9470000000  H2O       1               0.0000000000
        76         6  H3O       OH2             3.2940000000        3.1800000000       -3.0180000000  H3O       1               0.0000000000
        77         6  H3O       H1              2.4200000000        2.8870000000       -2.5780000000  H3O       1               0.0000000000
        78         6  H3O       H2              3.6710000000        3.9900000000       -2.5210000000  H3O       1               0.0000000000
        79         6  H3O       H3              3.9690000000        2.4130000000       -2.9820000000  H3O       1               0.0000000000
        80         6  H3O       H4              3.1170000000        3.4330000000       -3.9930000000  H3O       1               0.0000000000
        81         7  OH        OH2            -2.5970000000        2.5650000000        2.9990000000  OH        1               0.0000000000
        82         7  OH        H1             -1.5960000000        2.7220000000        2.8740000000  OH        1               0.0000000000
        83         7  OH        H2             -2.8960000000        1.7880000000        2.4070000000  OH        1               0.0000000000
        84         7  OH        H3             -2.7890000000        2.3420000000        3.9780000000  OH        1               0.0000000000
        85         7  OH        H4             -3.1100000000        3.4100000000        2.7350000000  OH        1               0.0000000000
        86         8  CLA       CLA             4.0000000000       -4.0000000000        4.0000000000  CLA      1               0.0000000000
        87         9  SOD       SOD             3.9390000000        1.9640000000        3.9930000000  SOD      1               0.0000000000
